<LesHouchesEvents version="3.0">
<header>
<!--
#*********************************************************************
#                                                                    *
#                        MadGraph5_aMC@NLO                           *
#                                                                    *
#                           Going Beyond                             *
#                                                                    *
#                   http://madgraph.hep.uiuc.edu                     *
#                   http://madgraph.phys.ucl.ac.be                   *
#                   http://amcatnlo.cern.ch                          *
#                                                                    *
#                     The MadGraph5_aMC@NLO team                     *
#                                                                    *
#....................................................................*
#                                                                    *
# This file contains all the information necessary to reproduce      *
# the events generated:                                              *
#                                                                    *
# 1. software version                                                *
# 2. proc_card          : code generation info including model       *
# 3. param_card         : model primary parameters in the LH format  *
# 4. run_card           : running parameters (collider and cuts)     *
# 5. pythia_card        : present only if pythia has been run        *
# 6. pgs_card           : present only if pgs has been run           *
# 7. delphes_cards      : present only if delphes has been run       *
#                                                                    *
#                                                                    *
#*********************************************************************
-->
<MGVersion>
2.6.7
</MGVersion>
<MG5ProcCard>
<![CDATA[
#************************************************************
#*                     MadGraph5_aMC@NLO                    *
#*                                                          *
#*                *                       *                 *
#*                  *        * *        *                   *
#*                    * * * * 5 * * * *                     *
#*                  *        * *        *                   *
#*                *                       *                 *
#*                                                          *
#*                                                          *
#*         VERSION 2.6.7                 2019-10-16         *
#*                                                          *
#*    The MadGraph5_aMC@NLO Development Team - Find us at   *
#*    https://server06.fynu.ucl.ac.be/projects/madgraph     *
#*                                                          *
#************************************************************
#*                                                          *
#*               Command File for MadGraph5_aMC@NLO         *
#*                                                          *
#*     run as ./bin/mg5_aMC  filename                       *
#*                                                          *
#************************************************************
set default_unset_couplings 99
set group_subprocesses Auto
set ignore_six_quark_processes False
set loop_optimized_output True
set loop_color_flows False
set gauge unitary
set complex_mass_scheme False
set max_npoint_for_channel 0
import model DMsimp_s_spin1 --modelname
define p = g u c d s u~ c~ d~ s~
define j = g u c d s u~ c~ d~ s~
define l+ = e+ mu+
define l- = e- mu-
define vl = ve vm vt
define vl~ = ve~ vm~ vt~
define p = 21 2 4 1 3 -2 -4 -1 -3 5 -5 # pass to 5 flavors
define j = p
generate p p > xd xd~ j
output output
]]>
</MG5ProcCard>
<MGProcCard>
#*********************************************************************
#                        MadGraph/MadEvent                           *
#                   http://madgraph.hep.uiuc.edu                     *
#                                                                    *
#                          proc_card.dat                             *
#*********************************************************************
#                                                                    *
#            This Files is generated by MADGRAPH 5                   *
#                                                                    *
# WARNING: This Files is generated for MADEVENT (compatibility issue)*
#          This files is NOT a valid MG4 proc_card.dat               *
#          Running this in MG4 will NEVER reproduce the result of MG5*
#                                                                    *
#*********************************************************************
#*********************************************************************
# Process(es) requested : mg2 input                                  *
#*********************************************************************
# Begin PROCESS # This is TAG. Do not modify this line
p p > xd xd~ j           #Process
# Be carefull the coupling are here in MG5 convention
          
end_coup           # End the couplings input

done               # this tells MG there are no more procs
# End PROCESS  # This is TAG. Do not modify this line
#*********************************************************************
# Model information                                                  *
#*********************************************************************
# Begin MODEL  # This is TAG. Do not modify this line
DMsimp_s_spin1
# End   MODEL  # This is TAG. Do not modify this line
#*********************************************************************
# Start multiparticle definitions                                    *
#*********************************************************************
# Begin MULTIPARTICLES # This is TAG. Do not modify this line

# End  MULTIPARTICLES # This is TAG. Do not modify this line
</MGProcCard>
<MGRunCard>
<![CDATA[
#*********************************************************************
#                       MadGraph5_aMC@NLO                            *
#                                                                    *
#                     run_card.dat MadEvent                          *
#                                                                    *
#  This file is used to set the parameters of the run.               *
#                                                                    *
#  Some notation/conventions:                                        *
#                                                                    *
#   Lines starting with a '# ' are info or comments                  *
#                                                                    *
#   mind the format:   value    = variable     ! comment             *
#                                                                    *
#   To display more options, you can type the command:               *
#      update full_run_card                                          *
#*********************************************************************
#
#*******************                                                 
# Running parameters
#*******************                                                 
#                                                                    
#*********************************************************************
# Tag name for the run (one word)                                    *
#*********************************************************************
  tag_1	= run_tag ! name of the run 
#*********************************************************************
# Number of events and rnd seed                                      *
# Warning: Do not generate more than 1M events in a single run       *
#*********************************************************************
  1000	= nevents ! Number of unweighted events requested 
 21 = iseed ! rnd seed (0=assigned automatically=default))
#*********************************************************************
# Collider type and energy                                           *
# lpp: 0=No PDF, 1=proton, -1=antiproton, 2=photon from proton,      *
#                                         3=photon from electron     *
#*********************************************************************
  1	= lpp1 ! beam 1 type 
  1	= lpp2 ! beam 2 type
  6500.0	= ebeam1 ! beam 1 total energy in GeV
  6500.0	= ebeam2 ! beam 2 total energy in GeV
# To see polarised beam options: type "update beam_pol"
#*********************************************************************
# PDF CHOICE: this automatically fixes also alpha_s and its evol.    *
#*********************************************************************
  nn23lo1	= pdlabel ! PDF set                                     
  230000	= lhaid ! if pdlabel=lhapdf, this is the lhapdf number
# To see heavy ion options: type "update ion_pdf"
#*********************************************************************
# Renormalization and factorization scales                           *
#*********************************************************************
  False	= fixed_ren_scale ! if .true. use fixed ren scale
  False	= fixed_fac_scale ! if .true. use fixed fac scale
  91.188	= scale ! fixed ren scale
  91.188	= dsqrt_q2fact1 ! fixed fact scale for pdf1
  91.188	= dsqrt_q2fact2 ! fixed fact scale for pdf2
  -1	= dynamical_scale_choice ! Choose one of the preselected dynamical choices
  1.0	= scalefact ! scale factor for event-by-event scales
#*********************************************************************
# Type and output format
#*********************************************************************
  False	= gridpack !True = setting up the grid pack
  -1.0	= time_of_flight ! threshold (in mm) below which the invariant livetime is not written (-1 means not written)
  3.0	= lhe_version ! Change the way clustering information pass to shower.        
  True	= clusinfo ! include clustering tag in output
  average	= event_norm ! average/sum. Normalization of the weight in the LHEF

#*********************************************************************
# Matching parameter (MLM only)
#*********************************************************************
  0	= ickkw ! 0 no matching, 1 MLM
  1.0	= alpsfact ! scale factor for QCD emission vx
  False	= chcluster ! cluster only according to channel diag
  5	= asrwgtflavor ! highest quark flavor for a_s reweight
  True	= auto_ptj_mjj ! Automatic setting of ptj and mjj if xqcut >0
                                   ! (turn off for VBF and single top processes) 
  0.0	= xqcut ! minimum kt jet measure between partons
#*********************************************************************
#
#*********************************************************************
# handling of the helicities:
#  0: sum over all helicities
#  1: importance sampling over helicities
#*********************************************************************
  0	= nhel ! using helicities importance sampling or not.
#*********************************************************************
# Generation bias, check the wiki page below for more information:   *
#  'cp3.irmp.ucl.ac.be/projects/madgraph/wiki/LOEventGenerationBias' *
#*********************************************************************
  None	= bias_module ! Bias type of bias, [None, ptj_bias, -custom_folder-]
  {}	= bias_parameters ! Specifies the parameters of the module.
#
#*******************************                                                 
# Parton level cuts definition *
#*******************************                                     
#                                                                    
#
#*********************************************************************
# BW cutoff (M+/-bwcutoff*Gamma) ! Define on/off-shell for "$" and decay  
#*********************************************************************
  15.0	= bwcutoff ! (M+/-bwcutoff*Gamma)
#*********************************************************************
# Apply pt/E/eta/dr/mij/kt_durham cuts on decay products or not
# (note that etmiss/ptll/ptheavy/ht/sorted cuts always apply)
#*********************************************************************
  False	= cut_decays ! Cut decay products 
#*********************************************************************
# Standard Cuts                                                      *
#*********************************************************************
# Minimum and maximum pt's (for max, -1 means no cut)                *
#*********************************************************************
  20.0	= ptj ! minimum pt for the jets 
  0.0	= ptb ! minimum pt for the b 
  10.0	= pta ! minimum pt for the photons 
  10.0	= ptl ! minimum pt for the charged leptons 
  0.0	= misset ! minimum missing Et (sum of neutrino's momenta)
  -1.0	= ptjmax ! maximum pt for the jets
  -1.0	= ptbmax ! maximum pt for the b
  -1.0	= ptamax ! maximum pt for the photons
  -1.0	= ptlmax ! maximum pt for the charged leptons
  -1.0	= missetmax ! maximum missing Et (sum of neutrino's momenta)
  {}	= pt_min_pdg ! pt cut for other particles (use pdg code). Applied on particle and anti-particle
  {}	= pt_max_pdg ! pt cut for other particles (syntax e.g. {6: 100, 25: 50}) 
#
# For display option for energy cut in the partonic center of mass frame type 'update ecut'
#
#*********************************************************************
# Maximum and minimum absolute rapidity (for max, -1 means no cut)   *
#*********************************************************************
  5.0	= etaj ! max rap for the jets 
  -1.0	= etab ! max rap for the b
  2.5	= etaa ! max rap for the photons 
  2.5	= etal ! max rap for the charged leptons 
  0.0	= etajmin ! min rap for the jets
  0.0	= etabmin ! min rap for the b
  0.0	= etaamin ! min rap for the photons
  0.0	= etalmin ! main rap for the charged leptons
  {}	= eta_min_pdg ! rap cut for other particles (use pdg code). Applied on particle and anti-particle
  {}	= eta_max_pdg ! rap cut for other particles (syntax e.g. {6: 2.5, 23: 5})
#*********************************************************************
# Minimum and maximum DeltaR distance                                *
#*********************************************************************
  0.4	= drjj ! min distance between jets 
  0.0	= drbb ! min distance between b's 
  0.4	= drll ! min distance between leptons 
  0.4	= draa ! min distance between gammas 
  0.0	= drbj ! min distance between b and jet 
  0.4	= draj ! min distance between gamma and jet 
  0.4	= drjl ! min distance between jet and lepton 
  0.0	= drab ! min distance between gamma and b 
  0.0	= drbl ! min distance between b and lepton 
  0.4	= dral ! min distance between gamma and lepton 
  -1.0	= drjjmax ! max distance between jets
  -1.0	= drbbmax ! max distance between b's
  -1.0	= drllmax ! max distance between leptons
  -1.0	= draamax ! max distance between gammas
  -1.0	= drbjmax ! max distance between b and jet
  -1.0	= drajmax ! max distance between gamma and jet
  -1.0	= drjlmax ! max distance between jet and lepton
  -1.0	= drabmax ! max distance between gamma and b
  -1.0	= drblmax ! max distance between b and lepton
  -1.0	= dralmax ! maxdistance between gamma and lepton
#*********************************************************************
# Minimum and maximum invariant mass for pairs                       *
# WARNING: for four lepton final state mmll cut require to have      *
#          different lepton masses for each flavor!                  *           
#*********************************************************************
  0.0	= mmjj ! min invariant mass of a jet pair 
  0.0	= mmbb ! min invariant mass of a b pair 
  0.0	= mmaa ! min invariant mass of gamma gamma pair
  0.0	= mmll ! min invariant mass of l+l- (same flavour) lepton pair
  -1.0	= mmjjmax ! max invariant mass of a jet pair
  -1.0	= mmbbmax ! max invariant mass of a b pair
  -1.0	= mmaamax ! max invariant mass of gamma gamma pair
  -1.0	= mmllmax ! max invariant mass of l+l- (same flavour) lepton pair
  {}	= mxx_min_pdg ! min invariant mass of a pair of particles X/X~ (e.g. {6:250})
  {'default': False}	= mxx_only_part_antipart ! if True the invariant mass is applied only 
                       ! to pairs of particle/antiparticle and not to pairs of the same pdg codes.  
#*********************************************************************
# Minimum and maximum invariant mass for all letpons                 *
#*********************************************************************
  0.0	= mmnl ! min invariant mass for all letpons (l+- and vl) 
  -1.0	= mmnlmax ! max invariant mass for all letpons (l+- and vl) 
#*********************************************************************
# Minimum and maximum pt for 4-momenta sum of leptons                *
#*********************************************************************
  0.0	= ptllmin ! Minimum pt for 4-momenta sum of leptons(l and vl)
  -1.0	= ptllmax ! Maximum pt for 4-momenta sum of leptons(l and vl)
#*********************************************************************
# Inclusive cuts                                                     *
#*********************************************************************
  0.0	= ptheavy ! minimum pt for at least one heavy final state
  0.0	= xptj ! minimum pt for at least one jet  
  0.0	= xptb ! minimum pt for at least one b 
  0.0	= xpta ! minimum pt for at least one photon 
  0.0	= xptl ! minimum pt for at least one charged lepton 
#*********************************************************************
# Control the pt's of the jets sorted by pt                          *
#*********************************************************************
  0.0	= ptj1min ! minimum pt for the leading jet in pt
  0.0	= ptj2min ! minimum pt for the second jet in pt
  0.0	= ptj3min ! minimum pt for the third jet in pt
  0.0	= ptj4min ! minimum pt for the fourth jet in pt
  -1.0	= ptj1max ! maximum pt for the leading jet in pt 
  -1.0	= ptj2max ! maximum pt for the second jet in pt
  -1.0	= ptj3max ! maximum pt for the third jet in pt
  -1.0	= ptj4max ! maximum pt for the fourth jet in pt
  0	= cutuse ! reject event if fails any (0) / all (1) jet pt cuts
#*********************************************************************
# Control the pt's of leptons sorted by pt                           *
#*********************************************************************
  0.0	= ptl1min ! minimum pt for the leading lepton in pt
  0.0	= ptl2min ! minimum pt for the second lepton in pt
  0.0	= ptl3min ! minimum pt for the third lepton in pt
  0.0	= ptl4min ! minimum pt for the fourth lepton in pt
  -1.0	= ptl1max ! maximum pt for the leading lepton in pt 
  -1.0	= ptl2max ! maximum pt for the second lepton in pt
  -1.0	= ptl3max ! maximum pt for the third lepton in pt
  -1.0	= ptl4max ! maximum pt for the fourth lepton in pt
#*********************************************************************
# Control the Ht(k)=Sum of k leading jets                            *
#*********************************************************************
  0.0	= htjmin ! minimum jet HT=Sum(jet pt)
  -1.0	= htjmax ! maximum jet HT=Sum(jet pt)
  0.0	= ihtmin !inclusive Ht for all partons (including b)
  -1.0	= ihtmax !inclusive Ht for all partons (including b)
  0.0	= ht2min ! minimum Ht for the two leading jets
  0.0	= ht3min ! minimum Ht for the three leading jets
  0.0	= ht4min ! minimum Ht for the four leading jets
  -1.0	= ht2max ! maximum Ht for the two leading jets
  -1.0	= ht3max ! maximum Ht for the three leading jets
  -1.0	= ht4max ! maximum Ht for the four leading jets
#***********************************************************************
# Photon-isolation cuts, according to hep-ph/9801442                   *
# When ptgmin=0, all the other parameters are ignored                  *
# When ptgmin>0, pta and draj are not going to be used                 *
#***********************************************************************
  0.0	= ptgmin ! Min photon transverse momentum
  0.4	= r0gamma ! Radius of isolation code
  1.0	= xn ! n parameter of eq.(3.4) in hep-ph/9801442
  1.0	= epsgamma ! epsilon_gamma parameter of eq.(3.4) in hep-ph/9801442
  True	= isoem ! isolate photons from EM energy (photons and leptons)
#*********************************************************************
# WBF cuts                                                           *
#*********************************************************************
  0.0	= xetamin ! minimum rapidity for two jets in the WBF case  
  0.0	= deltaeta ! minimum rapidity for two jets in the WBF case 
#***********************************************************************
# Turn on either the ktdurham or ptlund cut to activate                *
# CKKW(L) merging with Pythia8 [arXiv:1410.3012, arXiv:1109.4829]      *
#***********************************************************************
  -1.0	= ktdurham 
  0.4	= dparameter 
  -1.0	= ptlund 
  1, 2, 3, 4, 5, 6, 21, 82	= pdgs_for_merging_cut ! PDGs for two cuts above   
#*********************************************************************
# maximal pdg code for quark to be considered as a light jet         *
# (otherwise b cuts are applied)                                     *
#*********************************************************************
  5	= maxjetflavor ! Maximum jet pdg code
#*********************************************************************
#
#*********************************************************************
# Store info for systematics studies                                 *
# WARNING: Do not use for interference type of computation           *
#*********************************************************************
  True	= use_syst ! Enable systematics studies
#
  systematics	= systematics_program ! none, systematics [python], SysCalc [depreceted, C++]
['--mur=0.5,1,2', '--muf=0.5,1,2', '--pdf=errorset'] = systematics_arguments ! see: https://cp3.irmp.ucl.ac.be/projects/madgraph/wiki/Systematics#Systematicspythonmodule
# Syscalc is deprecated but to see the associate options type'update syscalc'#********************************************************************* 
#  Additional hidden parameters
#*********************************************************************
  ['--mur=0.5,1,2', '--muf=0.5,1,2', '--pdf=errorset']	= systematics_arguments # Choose the argment to pass to the systematics command. like --mur=0.25,1,4. Look at the help of the systematics function for more details.
]]>
</MGRunCard>
<slha>
######################################################################
## PARAM_CARD AUTOMATICALY GENERATED BY MG5 FOLLOWING UFO MODEL   ####
######################################################################
##                                                                  ##
##  Width set on Auto will be computed following the information    ##
##        present in the decay.py files of the model.               ##
##        See  arXiv:1402.1178 for more details.                    ##
##                                                                  ##
######################################################################

###################################
## INFORMATION FOR CKMBLOCK
###################################
Block ckmblock 
    1 2.277360e-01 # cabi 

###################################
## INFORMATION FOR DMINPUTS
###################################
Block dminputs 
    1 0.000000e+00 # gVXc 
    2 1.000000e+00 # gVXd 
    3 0.000000e+00 # gAXd 
    4 2.500000e-01 # gVd11 
    5 2.500000e-01 # gVu11 
    6 2.500000e-01 # gVd22 
    7 2.500000e-01 # gVu22 
    8 2.500000e-01 # gVd33 
    9 2.500000e-01 # gVu33 
   10 0.000000e+00 # gVl11 
   11 0.000000e+00 # gVl22 
   12 0.000000e+00 # gVl33 
   13 0.000000e+00 # gAd11 
   14 0.000000e+00 # gAu11 
   15 0.000000e+00 # gAd22 
   16 0.000000e+00 # gAu22 
   17 0.000000e+00 # gAd33 
   18 0.000000e+00 # gAu33 
   19 0.000000e+00 # gAl11 
   20 0.000000e+00 # gAl22 
   21 0.000000e+00 # gAl33 
   22 0.000000e+00 # gnu11 
   23 0.000000e+00 # gnu22 
   24 0.000000e+00 # gnu33 
   25 0.000000e+00 # gVu31 
   26 0.000000e+00 # gAu31 
   27 0.000000e+00 # gVd31 
   28 0.000000e+00 # gAd31 
   29 0.000000e+00 # gVh 

###################################
## INFORMATION FOR LOOP
###################################
Block loop 
    1 9.118800e+01 # MU_R 

###################################
## INFORMATION FOR MASS
###################################
Block mass 
    6 1.720000e+02 # MT 
   15 1.777000e+00 # MTA 
   23 9.118760e+01 # MZ 
   25 1.250000e+02 # MH 
  5000001 1.000000e+03 # MY1 
  5000511 1.000000e+01 # MXr 
  5000512 1.000000e+01 # MXc 
  5000521 1.000000e+01 # MXd 
## Dependent parameters, given by model restrictions.
## Those values should be edited following the 
## analytical expression. MG5 ignores those values 
## but they are important for interfacing the output of MG5
## to external program such as Pythia.
  1 0.000000e+00 # d : 0.0 
  2 0.000000e+00 # u : 0.0 
  3 0.000000e+00 # s : 0.0 
  4 0.000000e+00 # c : 0.0 
  5 0.000000e+00 # b : 0.0 
  11 0.000000e+00 # e- : 0.0 
  12 0.000000e+00 # ve : 0.0 
  13 0.000000e+00 # mu- : 0.0 
  14 0.000000e+00 # vm : 0.0 
  16 0.000000e+00 # vt : 0.0 
  21 0.000000e+00 # g : 0.0 
  22 0.000000e+00 # a : 0.0 
  24 7.982436e+01 # w+ : cmath.sqrt(MZ__exp__2/2. + cmath.sqrt(MZ__exp__4/4. - (aEW*cmath.pi*MZ__exp__2)/(Gf*sqrt__2))) 
  9000002 9.118760e+01 # ghz : MZ 
  9000003 7.982436e+01 # ghwp : MW 
  9000004 7.982436e+01 # ghwm : MW 

###################################
## INFORMATION FOR SMINPUTS
###################################
Block sminputs 
    1 1.279000e+02 # aEWM1 
    2 1.166370e-05 # Gf 
    3 1.184000e-01 # aS 

###################################
## INFORMATION FOR YUKAWA
###################################
Block yukawa 
    6 1.720000e+02 # ymt 
   15 1.777000e+00 # ymtau 

###################################
## INFORMATION FOR DECAY
###################################
DECAY   6 1.508336e+00 # WT 
DECAY  23 2.495200e+00 # WZ 
DECAY  24 2.085000e+00 # WW 
DECAY  25 4.070000e-03 # WH 
DECAY 5000001 1.000000e+01 # WY1 
## Dependent parameters, given by model restrictions.
## Those values should be edited following the 
## analytical expression. MG5 ignores those values 
## but they are important for interfacing the output of MG5
## to external program such as Pythia.
DECAY  1 0.000000e+00 # d : 0.0 
DECAY  2 0.000000e+00 # u : 0.0 
DECAY  3 0.000000e+00 # s : 0.0 
DECAY  4 0.000000e+00 # c : 0.0 
DECAY  5 0.000000e+00 # b : 0.0 
DECAY  11 0.000000e+00 # e- : 0.0 
DECAY  12 0.000000e+00 # ve : 0.0 
DECAY  13 0.000000e+00 # mu- : 0.0 
DECAY  14 0.000000e+00 # vm : 0.0 
DECAY  15 0.000000e+00 # ta- : 0.0 
DECAY  16 0.000000e+00 # vt : 0.0 
DECAY  21 0.000000e+00 # g : 0.0 
DECAY  22 0.000000e+00 # a : 0.0 
DECAY  5000511 0.000000e+00 # xr : 0.0 
DECAY  5000512 0.000000e+00 # xc : 0.0 
DECAY  5000521 0.000000e+00 # xd : 0.0 
DECAY  9000002 2.495200e+00 # ghz : WZ 
DECAY  9000003 2.085000e+00 # ghwp : WW 
DECAY  9000004 2.085000e+00 # ghwm : WW 
#===========================================================
# QUANTUM NUMBERS OF NEW STATE(S) (NON SM PDG CODE)
#===========================================================

Block QNUMBERS 9000001  # gha 
        1 0  # 3 times electric charge
        2 1  # number of spin states (2S+1)
        3 1  # colour rep (1: singlet, 3: triplet, 8: octet)
        4 1  # Particle/Antiparticle distinction (0=own anti)
Block QNUMBERS 9000002  # ghz 
        1 0  # 3 times electric charge
        2 1  # number of spin states (2S+1)
        3 1  # colour rep (1: singlet, 3: triplet, 8: octet)
        4 1  # Particle/Antiparticle distinction (0=own anti)
Block QNUMBERS 9000003  # ghwp 
        1 3  # 3 times electric charge
        2 1  # number of spin states (2S+1)
        3 1  # colour rep (1: singlet, 3: triplet, 8: octet)
        4 1  # Particle/Antiparticle distinction (0=own anti)
Block QNUMBERS 9000004  # ghwm 
        1 -3  # 3 times electric charge
        2 1  # number of spin states (2S+1)
        3 1  # colour rep (1: singlet, 3: triplet, 8: octet)
        4 1  # Particle/Antiparticle distinction (0=own anti)
Block QNUMBERS 82  # ghg 
        1 0  # 3 times electric charge
        2 1  # number of spin states (2S+1)
        3 8  # colour rep (1: singlet, 3: triplet, 8: octet)
        4 1  # Particle/Antiparticle distinction (0=own anti)
Block QNUMBERS 5000511  # xr 
        1 0  # 3 times electric charge
        2 1  # number of spin states (2S+1)
        3 1  # colour rep (1: singlet, 3: triplet, 8: octet)
        4 0  # Particle/Antiparticle distinction (0=own anti)
Block QNUMBERS 5000512  # xc 
        1 0  # 3 times electric charge
        2 1  # number of spin states (2S+1)
        3 1  # colour rep (1: singlet, 3: triplet, 8: octet)
        4 1  # Particle/Antiparticle distinction (0=own anti)
Block QNUMBERS 5000521  # xd 
        1 0  # 3 times electric charge
        2 2  # number of spin states (2S+1)
        3 1  # colour rep (1: singlet, 3: triplet, 8: octet)
        4 1  # Particle/Antiparticle distinction (0=own anti)
Block QNUMBERS 5000001  # y1 
        1 0  # 3 times electric charge
        2 3  # number of spin states (2S+1)
        3 1  # colour rep (1: singlet, 3: triplet, 8: octet)
        4 0  # Particle/Antiparticle distinction (0=own anti)
</slha>
<MGGenerationInfo>
#  Number of Events        :       1000
#  Integrated weight (pb)  :       30.74159
</MGGenerationInfo>
</header>
<init>
2212 2212 6.500000e+03 6.500000e+03 0 0 247000 247000 -4 1
3.074159e+01 2.751334e-01 3.074159e+01 1
<generator name='MadGraph5_aMC@NLO' version='2.6.7'>please cite 1405.0301 </generator>
</init>
<event>
 6      1 +3.0741590e+01 1.01509800e+03 7.81860800e-03 9.29213800e-02
       21 -1    0    0  501  502 +0.0000000000e+00 +0.0000000000e+00 +4.8085882963e+02 4.8085882963e+02 0.0000000000e+00 0.0000e+00 -1.0000e+00
        2 -1    0    0  502    0 -0.0000000000e+00 -0.0000000000e+00 -7.3546223162e+02 7.3546223162e+02 0.0000000000e+00 0.0000e+00 1.0000e+00
  5000001  2    1    2    0    0 -5.2724515858e+01 -1.4804114372e+02 -1.4658510455e+02 1.0256275706e+03 1.0028602424e+03 0.0000e+00 0.0000e+00
  5000521  1    3    3    0    0 +3.2312404954e+01 -5.6663662066e+02 +1.7565811002e+01 5.6791699138e+02 1.0000000000e+01 0.0000e+00 -1.0000e+00
 -5000521  1    3    3    0    0 -8.5036920812e+01 +4.1859547694e+02 -1.6415091555e+02 4.5771057918e+02 1.0000000000e+01 0.0000e+00 1.0000e+00
        2  1    1    2  501    0 +5.2724515858e+01 +1.4804114372e+02 -1.0801829744e+02 1.9069349068e+02 0.0000000000e+00 0.0000e+00 1.0000e+00
<mgrwt>
<rscale>  1 0.10150984E+04</rscale>
<asrwt>0</asrwt>
<pdfrwt beam="1">  1       21 0.73978282E-01 0.10150984E+04</pdfrwt>
<pdfrwt beam="2">  1        2 0.11314804E+00 0.10150984E+04</pdfrwt>
<totfact> 0.67521638E+02</totfact>
</mgrwt>
</event>
<event>
 6      1 +3.0741590e+01 1.02364900e+03 7.81860800e-03 9.28298100e-02
        1 -1    0    0  502    0 +0.0000000000e+00 +0.0000000000e+00 +1.4871525922e+03 1.4871525922e+03 0.0000000000e+00 0.0000e+00 1.0000e+00
       -1 -1    0    0    0  501 -0.0000000000e+00 -0.0000000000e+00 -2.5550704294e+02 2.5550704294e+02 0.0000000000e+00 0.0000e+00 -1.0000e+00
  5000001  2    1    2    0    0 +4.6482471937e-01 -2.0840655444e+02 +9.9936954923e+02 1.4305928984e+03 1.0022090785e+03 0.0000e+00 0.0000e+00
  5000521  1    3    3    0    0 -2.8188549365e+02 +4.4936489229e+01 +1.0113668540e+03 1.0509241804e+03 1.0000000000e+01 0.0000e+00 -1.0000e+00
 -5000521  1    3    3    0    0 +2.8235031837e+02 -2.5334304367e+02 -1.1997304805e+01 3.7966871794e+02 1.0000000000e+01 0.0000e+00 1.0000e+00
       21  1    1    2  502  501 -4.6482471937e-01 +2.0840655444e+02 +2.3227600003e+02 3.1206673675e+02 0.0000000000e+00 0.0000e+00 -1.0000e+00
<mgrwt>
<rscale>  1 0.10236486E+04</rscale>
<asrwt>0</asrwt>
<pdfrwt beam="1">  1        1 0.22879270E+00 0.10236486E+04</pdfrwt>
<pdfrwt beam="2">  1       -1 0.39308777E-01 0.10236486E+04</pdfrwt>
<totfact> 0.42097184E+01</totfact>
</mgrwt>
</event>
<event>
 6      1 +3.0741590e+01 9.96070100e+02 7.81860800e-03 9.31286600e-02
       -5 -1    0    0    0  501 -0.0000000000e+00 +0.0000000000e+00 +5.7331441035e+02 5.7331441035e+02 0.0000000000e+00 0.0000e+00 1.0000e+00
        5 -1    0    0  502    0 +0.0000000000e+00 -0.0000000000e+00 -7.3919176437e+02 7.3919176437e+02 0.0000000000e+00 0.0000e+00 -1.0000e+00
  5000001  2    1    2    0    0 +3.0475885523e+01 -2.5137675280e+01 +1.3843166775e+02 1.0056435621e+03 9.9528637334e+02 0.0000e+00 0.0000e+00
  5000521  1    3    3    0    0 +5.0679369626e+02 +6.0157372503e+01 +4.2371320061e+01 5.1220512375e+02 1.0000000000e+01 0.0000e+00 -1.0000e+00
 -5000521  1    3    3    0    0 -4.7631781074e+02 -8.5295047782e+01 +9.6060347692e+01 4.9343843831e+02 1.0000000000e+01 0.0000e+00 1.0000e+00
       21  1    1    2  502  501 -3.0475885523e+01 +2.5137675280e+01 -3.0430902177e+02 3.0686261266e+02 0.0000000000e+00 0.0000e+00 -1.0000e+00
<mgrwt>
<rscale>  1 0.99607010E+03</rscale>
<asrwt>0</asrwt>
<pdfrwt beam="1">  1        5 0.11372181E+00 0.99607010E+03</pdfrwt>
<pdfrwt beam="2">  1       -5 0.88202217E-01 0.99607010E+03</pdfrwt>
<totfact> 0.56700826E-01</totfact>
</mgrwt>
</event>
<event>
 6      1 +3.0741590e+01 9.96915900e+02 7.81860800e-03 9.31193400e-02
        1 -1    0    0  502    0 +0.0000000000e+00 +0.0000000000e+00 +3.8831048296e+03 3.8831048296e+03 0.0000000000e+00 0.0000e+00 1.0000e+00
       -1 -1    0    0    0  501 -0.0000000000e+00 -0.0000000000e+00 -8.6105574198e+01 8.6105574198e+01 0.0000000000e+00 0.0000e+00 -1.0000e+00
  5000001  2    1    2    0    0 -2.2457901321e-01 -2.5287190164e+01 +2.8049965999e+03 2.9768854767e+03 9.9659506496e+02 0.0000e+00 0.0000e+00
  5000521  1    3    3    0    0 +8.6014436108e+01 -3.5593066056e+02 +3.7962861890e+02 5.2754431722e+02 1.0000000000e+01 0.0000e+00 -1.0000e+00
 -5000521  1    3    3    0    0 -8.6239015121e+01 +3.3064347040e+02 +2.4253679810e+03 2.4493411595e+03 1.0000000000e+01 0.0000e+00 1.0000e+00
       21  1    1    2  502  501 +2.2457901321e-01 +2.5287190164e+01 +9.9200265548e+02 9.9232492707e+02 0.0000000000e+00 0.0000e+00 1.0000e+00
<mgrwt>
<rscale>  1 0.99691585E+03</rscale>
<asrwt>0</asrwt>
<pdfrwt beam="1">  1        1 0.59740061E+00 0.99691585E+03</pdfrwt>
<pdfrwt beam="2">  1       -1 0.13247014E-01 0.99691585E+03</pdfrwt>
<totfact> 0.51159682E+00</totfact>
</mgrwt>
</event>
<event>
 6      1 +3.0741590e+01 1.01812100e+03 7.81860800e-03 9.28889000e-02
       -2 -1    0    0    0  501 -0.0000000000e+00 +0.0000000000e+00 +5.5306212186e+02 5.5306212186e+02 0.0000000000e+00 0.0000e+00 1.0000e+00
        2 -1    0    0  502    0 +0.0000000000e+00 -0.0000000000e+00 -1.0278873297e+03 1.0278873297e+03 0.0000000000e+00 0.0000e+00 -1.0000e+00
  5000001  2    1    2    0    0 -7.0353135256e+01 +1.7723580144e+02 +5.3237113332e+01 1.0195120926e+03 1.0001043065e+03 0.0000e+00 0.0000e+00
  5000521  1    3    3    0    0 -4.3608641843e+02 +3.9333039046e+02 +8.4710073172e+01 5.9342729706e+02 1.0000000000e+01 0.0000e+00 1.0000e+00
 -5000521  1    3    3    0    0 +3.6573328317e+02 -2.1609458903e+02 -3.1472959841e+01 4.2608479559e+02 1.0000000000e+01 0.0000e+00 -1.0000e+00
       21  1    1    2  502  501 +7.0353135256e+01 -1.7723580144e+02 -5.2806232115e+02 5.6143735890e+02 0.0000000000e+00 0.0000e+00 1.0000e+00
<mgrwt>
<rscale>  1 0.10181212E+04</rscale>
<asrwt>0</asrwt>
<pdfrwt beam="1">  1        2 0.15813651E+00 0.10181212E+04</pdfrwt>
<pdfrwt beam="2">  1       -2 0.85086480E-01 0.10181212E+04</pdfrwt>
<totfact> 0.28884729E+01</totfact>
</mgrwt>
</event>
<event>
 6      1 +3.0741590e+01 9.98490700e+02 7.81860800e-03 9.31020200e-02
        2 -1    0    0  502    0 -0.0000000000e+00 +0.0000000000e+00 +4.9883214955e+02 4.9883214955e+02 0.0000000000e+00 0.0000e+00 1.0000e+00
       21 -1    0    0  501  502 +0.0000000000e+00 -0.0000000000e+00 -5.7783555045e+02 5.7783555045e+02 0.0000000000e+00 0.0000e+00 -1.0000e+00
  5000001  2    1    2    0    0 +8.7725366907e+00 +3.0936118818e+01 -1.3946838251e+02 1.0081840169e+03 9.9797273581e+02 0.0000e+00 0.0000e+00
  5000521  1    3    3    0    0 +5.1944188117e+01 +2.3063570296e+02 -5.2270620243e+02 5.7377068609e+02 1.0000000000e+01 0.0000e+00 -1.0000e+00
 -5000521  1    3    3    0    0 -4.3171651426e+01 -1.9969958414e+02 +3.8323781991e+02 4.3441333083e+02 1.0000000000e+01 0.0000e+00 1.0000e+00
        2  1    1    2  501    0 -8.7725366907e+00 -3.0936118818e+01 +6.0464981608e+01 6.8483683082e+01 0.0000000000e+00 0.0000e+00 1.0000e+00
<mgrwt>
<rscale>  1 0.99849065E+03</rscale>
<asrwt>0</asrwt>
<pdfrwt beam="1">  1       21 0.88897776E-01 0.99849065E+03</pdfrwt>
<pdfrwt beam="2">  1        2 0.76743409E-01 0.99849065E+03</pdfrwt>
<totfact> 0.70539824E+02</totfact>
</mgrwt>
</event>
<event>
 6      1 +3.0741590e+01 9.98093900e+02 7.81860800e-03 9.31063800e-02
       21 -1    0    0  501  502 +0.0000000000e+00 +0.0000000000e+00 +7.7752869836e+02 7.7752869836e+02 0.0000000000e+00 0.0000e+00 1.0000e+00
        2 -1    0    0  502    0 -0.0000000000e+00 -0.0000000000e+00 -3.5640413631e+02 3.5640413631e+02 0.0000000000e+00 0.0000e+00 -1.0000e+00
  5000001  2    1    2    0    0 -3.4017490310e+01 -3.8402330282e+01 +3.7927783648e+02 1.0677280232e+03 9.9677456112e+02 0.0000e+00 0.0000e+00
  5000521  1    3    3    0    0 -1.6746669487e+02 +4.5531133980e+02 +1.5711402697e+02 5.1003757461e+02 1.0000000000e+01 0.0000e+00 1.0000e+00
 -5000521  1    3    3    0    0 +1.3344920456e+02 -4.9371367008e+02 +2.2216380950e+02 5.5769044861e+02 1.0000000000e+01 0.0000e+00 -1.0000e+00
        2  1    1    2  501    0 +3.4017490310e+01 +3.8402330282e+01 +4.1846725572e+01 6.6204811450e+01 0.0000000000e+00 0.0000e+00 -1.0000e+00
<mgrwt>
<rscale>  1 0.99809391E+03</rscale>
<asrwt>0</asrwt>
<pdfrwt beam="1">  1       21 0.11961980E+00 0.99809391E+03</pdfrwt>
<pdfrwt beam="2">  1        2 0.54831406E-01 0.99809391E+03</pdfrwt>
<totfact> 0.49399924E+02</totfact>
</mgrwt>
</event>
<event>
 6      1 +3.0741590e+01 1.12782000e+03 7.81860800e-03 9.17849300e-02
        1 -1    0    0  502    0 +0.0000000000e+00 +0.0000000000e+00 +1.3078455890e+03 1.3078455890e+03 0.0000000000e+00 0.0000e+00 -1.0000e+00
       -1 -1    0    0    0  501 -0.0000000000e+00 -0.0000000000e+00 -8.3777399693e+02 8.3777399693e+02 0.0000000000e+00 0.0000e+00 1.0000e+00
  5000001  2    1    2    0    0 +5.0717638810e+02 -1.0559836610e+02 -3.4538432040e+02 1.1795206010e+03 1.0017981911e+03 0.0000e+00 0.0000e+00
  5000521  1    3    3    0    0 -1.8678882574e+02 +1.4453860363e+02 -3.7262206555e+02 4.4128072369e+02 1.0000000000e+01 0.0000e+00 1.0000e+00
 -5000521  1    3    3    0    0 +6.9396521384e+02 -2.5013696973e+02 +2.7237745148e+01 7.3823987728e+02 1.0000000000e+01 0.0000e+00 -1.0000e+00
       21  1    1    2  502  501 -5.0717638810e+02 +1.0559836610e+02 +8.1545591249e+02 9.6609898498e+02 0.0000000000e+00 0.0000e+00 -1.0000e+00
<mgrwt>
<rscale>  1 0.11278203E+04</rscale>
<asrwt>0</asrwt>
<pdfrwt beam="1">  1        1 0.20120701E+00 0.11278203E+04</pdfrwt>
<pdfrwt beam="2">  1       -1 0.12888831E+00 0.11278203E+04</pdfrwt>
<totfact> 0.45795599E+00</totfact>
</mgrwt>
</event>
<event>
 6      1 +3.0741590e+01 9.98447400e+02 7.81860800e-03 9.31024900e-02
        2 -1    0    0  502    0 +0.0000000000e+00 +0.0000000000e+00 +9.5206733791e+02 9.5206733791e+02 0.0000000000e+00 0.0000e+00 -1.0000e+00
       -2 -1    0    0    0  501 -0.0000000000e+00 -0.0000000000e+00 -2.8288962641e+02 2.8288962641e+02 0.0000000000e+00 0.0000e+00 1.0000e+00
  5000001  2    1    2    0    0 -2.5201605000e+01 -3.4903618338e+00 +6.0874671628e+02 1.1693886129e+03 9.9812316873e+02 0.0000e+00 0.0000e+00
  5000521  1    3    3    0    0 +9.3364589656e+01 -2.3927996000e+02 +8.0196096795e+02 8.4214799173e+02 1.0000000000e+01 0.0000e+00 -1.0000e+00
 -5000521  1    3    3    0    0 -1.1856619466e+02 +2.3578959816e+02 -1.9321425167e+02 3.2724062120e+02 1.0000000000e+01 0.0000e+00 1.0000e+00
       21  1    1    2  502  501 +2.5201605000e+01 +3.4903618338e+00 +6.0430995223e+01 6.5568351390e+01 0.0000000000e+00 0.0000e+00 -1.0000e+00
<mgrwt>
<rscale>  1 0.99844738E+03</rscale>
<asrwt>0</asrwt>
<pdfrwt beam="1">  1        2 0.14647190E+00 0.99844738E+03</pdfrwt>
<pdfrwt beam="2">  1       -2 0.43521481E-01 0.99844738E+03</pdfrwt>
<totfact> 0.13518586E+02</totfact>
</mgrwt>
</event>
<event>
 6      1 +3.0741590e+01 9.94720500e+02 7.81860800e-03 9.31435400e-02
        2 -1    0    0  502    0 +0.0000000000e+00 +0.0000000000e+00 +3.5698235974e+03 3.5698235974e+03 0.0000000000e+00 0.0000e+00 1.0000e+00
       -2 -1    0    0    0  501 -0.0000000000e+00 -0.0000000000e+00 -7.3935108758e+01 7.3935108758e+01 0.0000000000e+00 0.0000e+00 -1.0000e+00
  5000001  2    1    2    0    0 +1.4708149756e+00 +2.3806068900e+01 +3.4636480218e+03 3.6036545927e+03 9.9443446860e+02 0.0000e+00 0.0000e+00
  5000521  1    3    3    0    0 -4.9034414925e+02 -1.2648434048e+01 +1.4618998550e+03 1.5420274167e+03 1.0000000000e+01 0.0000e+00 -1.0000e+00
 -5000521  1    3    3    0    0 +4.9181496423e+02 +3.6454502948e+01 +2.0017481668e+03 2.0616271760e+03 1.0000000000e+01 0.0000e+00 1.0000e+00
       21  1    1    2  502  501 -1.4708149756e+00 -2.3806068900e+01 +3.2240466776e+01 4.0104113394e+01 0.0000000000e+00 0.0000e+00 -1.0000e+00
<mgrwt>
<rscale>  1 0.99472047E+03</rscale>
<asrwt>0</asrwt>
<pdfrwt beam="1">  1        2 0.54920350E+00 0.99472047E+03</pdfrwt>
<pdfrwt beam="2">  1       -2 0.11374635E-01 0.99472047E+03</pdfrwt>
<totfact> 0.42089519E+01</totfact>
</mgrwt>
</event>
<event>
 6      1 +3.0741590e+01 9.96458900e+02 7.81860800e-03 9.31243700e-02
        2 -1    0    0  502    0 +0.0000000000e+00 +0.0000000000e+00 +3.1033626602e+03 3.1033626602e+03 0.0000000000e+00 0.0000e+00 1.0000e+00
       -2 -1    0    0    0  501 -0.0000000000e+00 -0.0000000000e+00 -1.0847609393e+02 1.0847609393e+02 0.0000000000e+00 0.0000e+00 -1.0000e+00
  5000001  2    1    2    0    0 +4.3963410832e+00 -1.0743032049e+02 +2.9067723455e+03 3.0728253826e+03 9.9064108614e+02 0.0000e+00 0.0000e+00
  5000521  1    3    3    0    0 -4.3575994250e+01 -2.4369262717e+02 +1.0794365699e+02 2.7025320886e+02 1.0000000000e+01 0.0000e+00 -1.0000e+00
 -5000521  1    3    3    0    0 +4.7972335333e+01 +1.3626230668e+02 +2.7988286885e+03 2.8025721737e+03 1.0000000000e+01 0.0000e+00 1.0000e+00
       21  1    1    2  502  501 -4.3963410832e+00 +1.0743032049e+02 +8.8114220767e+01 1.3901337158e+02 0.0000000000e+00 0.0000e+00 1.0000e+00
<mgrwt>
<rscale>  1 0.99645891E+03</rscale>
<asrwt>0</asrwt>
<pdfrwt beam="1">  1        2 0.47744034E+00 0.99645891E+03</pdfrwt>
<pdfrwt beam="2">  1       -2 0.16688632E-01 0.99645891E+03</pdfrwt>
<totfact> 0.44906937E+01</totfact>
</mgrwt>
</event>
<event>
 6      1 +3.0741590e+01 1.00314100e+03 7.81860800e-03 9.30510700e-02
        1 -1    0    0  502    0 +0.0000000000e+00 +0.0000000000e+00 +8.6588216935e+02 8.6588216935e+02 0.0000000000e+00 0.0000e+00 1.0000e+00
       -1 -1    0    0    0  501 -0.0000000000e+00 -0.0000000000e+00 -4.6709871537e+02 4.6709871537e+02 0.0000000000e+00 0.0000e+00 -1.0000e+00
  5000001  2    1    2    0    0 +1.1212713177e+02 +3.2635651638e+01 +9.5124783183e+01 1.0076408045e+03 9.9632007263e+02 0.0000e+00 0.0000e+00
  5000521  1    3    3    0    0 +4.0109034965e+02 +3.9137751359e+01 +4.1352418111e+02 5.7750106539e+02 1.0000000000e+01 0.0000e+00 1.0000e+00
 -5000521  1    3    3    0    0 -2.8896321788e+02 -6.5020997211e+00 -3.1839939792e+02 4.3013973914e+02 1.0000000000e+01 0.0000e+00 -1.0000e+00
       21  1    1    2  502  501 -1.1212713177e+02 -3.2635651638e+01 +3.0365867079e+02 3.2534008020e+02 0.0000000000e+00 0.0000e+00 1.0000e+00
<mgrwt>
<rscale>  1 0.10031407E+04</rscale>
<asrwt>0</asrwt>
<pdfrwt beam="1">  1        1 0.13321264E+00 0.10031407E+04</pdfrwt>
<pdfrwt beam="2">  1       -1 0.71861341E-01 0.10031407E+04</pdfrwt>
<totfact> 0.38051150E+01</totfact>
</mgrwt>
</event>
<event>
 6      1 +3.0741590e+01 1.00722000e+03 7.81860800e-03 9.30066100e-02
       21 -1    0    0  501  502 +0.0000000000e+00 +0.0000000000e+00 +1.7374717003e+02 1.7374717003e+02 0.0000000000e+00 0.0000e+00 1.0000e+00
        1 -1    0    0  502    0 -0.0000000000e+00 -0.0000000000e+00 -2.3241087569e+03 2.3241087569e+03 0.0000000000e+00 0.0000e+00 -1.0000e+00
  5000001  2    1    2    0    0 -2.3723422523e+01 +3.6505426492e+01 -2.2072617667e+03 2.4262104289e+03 1.0062788338e+03 0.0000e+00 0.0000e+00
  5000521  1    3    3    0    0 +1.1125463459e+02 -4.5688051780e+02 -7.8974110302e+02 9.1918899638e+02 1.0000000000e+01 0.0000e+00 -1.0000e+00
 -5000521  1    3    3    0    0 -1.3497805711e+02 +4.9338594429e+02 -1.4175206637e+03 1.5070214325e+03 1.0000000000e+01 0.0000e+00 1.0000e+00
        1  1    1    2  501    0 +2.3723422523e+01 -3.6505426492e+01 +5.6900179798e+01 7.1645498118e+01 0.0000000000e+00 0.0000e+00 -1.0000e+00
<mgrwt>
<rscale>  1 0.10072202E+04</rscale>
<asrwt>0</asrwt>
<pdfrwt beam="1">  1       21 0.26730334E-01 0.10072202E+04</pdfrwt>
<pdfrwt beam="2">  1        1 0.35755519E+00 0.10072202E+04</pdfrwt>
<totfact> 0.24636193E+02</totfact>
</mgrwt>
</event>
<event>
 6      1 +3.0741590e+01 1.06445900e+03 7.81860800e-03 9.24054200e-02
        1 -1    0    0  502    0 +0.0000000000e+00 +0.0000000000e+00 +6.0333060804e+02 6.0333060804e+02 0.0000000000e+00 0.0000e+00 1.0000e+00
       -1 -1    0    0    0  501 -0.0000000000e+00 -0.0000000000e+00 -9.6872917754e+02 9.6872917754e+02 0.0000000000e+00 0.0000e+00 -1.0000e+00
  5000001  2    1    2    0    0 -1.3899922495e+02 -3.0219872909e+02 -5.4302746895e+02 1.1949697667e+03 1.0111523401e+03 0.0000e+00 0.0000e+00
  5000521  1    3    3    0    0 +2.1456597183e+02 +1.1697531355e+02 +1.6819191059e+02 2.9683379025e+02 1.0000000000e+01 0.0000e+00 1.0000e+00
 -5000521  1    3    3    0    0 -3.5356519678e+02 -4.1917404264e+02 -7.1121937954e+02 8.9813597647e+02 1.0000000000e+01 0.0000e+00 -1.0000e+00
       21  1    1    2  502  501 +1.3899922495e+02 +3.0219872909e+02 +1.7762889945e+02 3.7709001885e+02 0.0000000000e+00 0.0000e+00 1.0000e+00
<mgrwt>
<rscale>  1 0.10644594E+04</rscale>
<asrwt>0</asrwt>
<pdfrwt beam="1">  1        1 0.92820094E-01 0.10644594E+04</pdfrwt>
<pdfrwt beam="2">  1       -1 0.14903526E+00 0.10644594E+04</pdfrwt>
<totfact> 0.12024934E+01</totfact>
</mgrwt>
</event>
<event>
 6      1 +3.0741590e+01 9.96806800e+02 7.81860800e-03 9.31205400e-02
       -4 -1    0    0    0  501 -0.0000000000e+00 +0.0000000000e+00 +2.1684438696e+03 2.1684438696e+03 0.0000000000e+00 0.0000e+00 1.0000e+00
       21 -1    0    0  501  502 +0.0000000000e+00 -0.0000000000e+00 -2.9301648852e+02 2.9301648852e+02 0.0000000000e+00 0.0000e+00 1.0000e+00
  5000001  2    1    2    0    0 -3.0859707480e+00 -2.9120590759e+01 +2.0526237022e+03 2.2818606136e+03 9.9637656791e+02 0.0000e+00 0.0000e+00
  5000521  1    3    3    0    0 -1.3001970951e+02 -1.3962425587e+02 -2.9159122672e+01 1.9326228842e+02 1.0000000000e+01 0.0000e+00 -1.0000e+00
 -5000521  1    3    3    0    0 +1.2693373877e+02 +1.1050366511e+02 +2.0817828249e+03 2.0885983252e+03 1.0000000000e+01 0.0000e+00 1.0000e+00
       -4  1    1    2    0  502 +3.0859707480e+00 +2.9120590759e+01 -1.7719632110e+02 1.7959974453e+02 0.0000000000e+00 0.0000e+00 1.0000e+00
<mgrwt>
<rscale>  1 0.99680680E+03</rscale>
<asrwt>0</asrwt>
<pdfrwt beam="1">  1       21 0.45079461E-01 0.99680680E+03</pdfrwt>
<pdfrwt beam="2">  1       -4 0.33360674E+00 0.99680680E+03</pdfrwt>
<totfact> 0.35993085E+00</totfact>
</mgrwt>
</event>
<event>
 6      1 +3.0741590e+01 1.00301900e+03 7.81860800e-03 9.30524000e-02
       -2 -1    0    0    0  501 -0.0000000000e+00 +0.0000000000e+00 +1.7376084844e+02 1.7376084844e+02 0.0000000000e+00 0.0000e+00 1.0000e+00
        2 -1    0    0  502    0 +0.0000000000e+00 -0.0000000000e+00 -1.6993772173e+03 1.6993772173e+03 0.0000000000e+00 0.0000e+00 -1.0000e+00
  5000001  2    1    2    0    0 -2.6296286519e+01 -7.9085671411e+00 -1.5432082264e+03 1.8405265100e+03 1.0026425903e+03 0.0000e+00 0.0000e+00
  5000521  1    3    3    0    0 +1.9298372678e+02 +4.3854719831e+02 -9.6717606838e+02 1.0793960863e+03 1.0000000000e+01 0.0000e+00 -1.0000e+00
 -5000521  1    3    3    0    0 -2.1928001330e+02 -4.4645576545e+02 -5.7603215801e+02 7.6113042365e+02 1.0000000000e+01 0.0000e+00 1.0000e+00
       21  1    1    2  502  501 +2.6296286519e+01 +7.9085671411e+00 +1.7591857515e+01 3.2611555770e+01 0.0000000000e+00 0.0000e+00 -1.0000e+00
<mgrwt>
<rscale>  1 0.10030185E+04</rscale>
<asrwt>0</asrwt>
<pdfrwt beam="1">  1        2 0.26144267E+00 0.10030185E+04</pdfrwt>
<pdfrwt beam="2">  1       -2 0.26732436E-01 0.10030185E+04</pdfrwt>
<totfact> 0.12448527E+02</totfact>
</mgrwt>
</event>
<event>
 6      1 +3.0741590e+01 1.07016400e+03 7.81860800e-03 9.23477000e-02
       -2 -1    0    0    0  501 -0.0000000000e+00 +0.0000000000e+00 +1.7094787862e+02 1.7094787862e+02 0.0000000000e+00 0.0000e+00 1.0000e+00
        2 -1    0    0  502    0 +0.0000000000e+00 -0.0000000000e+00 -1.7499814248e+03 1.7499814248e+03 0.0000000000e+00 0.0000e+00 -1.0000e+00
  5000001  2    1    2    0    0 -1.8765098848e+01 +7.9326822918e+00 -1.5237007868e+03 1.8619651563e+03 1.0699696721e+03 0.0000e+00 0.0000e+00
  5000521  1    3    3    0    0 +4.6324344636e+01 -2.8456896907e+02 -1.5350541563e+03 1.5619272409e+03 1.0000000000e+01 0.0000e+00 -1.0000e+00
 -5000521  1    3    3    0    0 -6.5089443485e+01 +2.9250165136e+02 +1.1353369491e+01 3.0003791544e+02 1.0000000000e+01 0.0000e+00 1.0000e+00
       21  1    1    2  502  501 +1.8765098848e+01 -7.9326822918e+00 -5.5332759324e+01 5.8964147052e+01 0.0000000000e+00 0.0000e+00 -1.0000e+00
<mgrwt>
<rscale>  1 0.10701636E+04</rscale>
<asrwt>0</asrwt>
<pdfrwt beam="1">  1        2 0.26922790E+00 0.10701636E+04</pdfrwt>
<pdfrwt beam="2">  1       -2 0.26299675E-01 0.10701636E+04</pdfrwt>
<totfact> 0.11972205E+02</totfact>
</mgrwt>
</event>
<event>
 6      1 +3.0741590e+01 1.04794100e+03 7.81860800e-03 9.25747300e-02
        1 -1    0    0  502    0 +0.0000000000e+00 +0.0000000000e+00 +8.2954952766e+02 8.2954952766e+02 0.0000000000e+00 0.0000e+00 -1.0000e+00
       -1 -1    0    0    0  501 -0.0000000000e+00 -0.0000000000e+00 -5.8584893574e+02 5.8584893574e+02 0.0000000000e+00 0.0000e+00 1.0000e+00
  5000001  2    1    2    0    0 -5.5951234539e+01 +5.9973835989e+01 +4.8924244973e+02 1.1565197165e+03 1.0447259346e+03 0.0000e+00 0.0000e+00
  5000521  1    3    3    0    0 -3.1737524216e+01 -5.9311895097e+01 +8.1023224296e+02 8.1308145895e+02 1.0000000000e+01 0.0000e+00 -1.0000e+00
 -5000521  1    3    3    0    0 -2.4213710324e+01 +1.1928573109e+02 -3.2098979324e+02 3.4343825758e+02 1.0000000000e+01 0.0000e+00 1.0000e+00
       21  1    1    2  502  501 +5.5951234539e+01 -5.9973835989e+01 -2.4554185781e+02 2.5887874688e+02 0.0000000000e+00 0.0000e+00 1.0000e+00
<mgrwt>
<rscale>  1 0.10479407E+04</rscale>
<asrwt>0</asrwt>
<pdfrwt beam="1">  1        1 0.12762301E+00 0.10479407E+04</pdfrwt>
<pdfrwt beam="2">  1       -1 0.90130605E-01 0.10479407E+04</pdfrwt>
<totfact> 0.25068042E+01</totfact>
</mgrwt>
</event>
<event>
 6      1 +3.0741590e+01 1.01060700e+03 7.81860800e-03 9.29698700e-02
       21 -1    0    0  501  502 +0.0000000000e+00 +0.0000000000e+00 +6.3622090694e+02 6.3622090694e+02 0.0000000000e+00 0.0000e+00 1.0000e+00
       -1 -1    0    0    0  501 -0.0000000000e+00 -0.0000000000e+00 -5.0410592069e+02 5.0410592069e+02 0.0000000000e+00 0.0000e+00 -1.0000e+00
  5000001  2    1    2    0    0 +2.1308975001e+01 +7.2534398071e+00 +4.3724973554e+00 1.0106162719e+03 1.0103560983e+03 0.0000e+00 0.0000e+00
  5000521  1    3    3    0    0 +1.7229917808e+02 +3.2260082498e+02 -3.5453301594e+02 5.0946242102e+02 1.0000000000e+01 0.0000e+00 -1.0000e+00
 -5000521  1    3    3    0    0 -1.5099020308e+02 -3.1534738517e+02 +3.5890551329e+02 5.0115385086e+02 1.0000000000e+01 0.0000e+00 1.0000e+00
       -1  1    1    2    0  502 -2.1308975001e+01 -7.2534398071e+00 +1.2774248889e+02 1.2971055575e+02 0.0000000000e+00 0.0000e+00 -1.0000e+00
<mgrwt>
<rscale>  1 0.10106068E+04</rscale>
<asrwt>0</asrwt>
<pdfrwt beam="1">  1       21 0.97880139E-01 0.10106068E+04</pdfrwt>
<pdfrwt beam="2">  1       -1 0.77554757E-01 0.10106068E+04</pdfrwt>
<totfact> 0.11322748E+02</totfact>
</mgrwt>
</event>
<event>
 6      1 +3.0741590e+01 1.00451700e+03 7.81860800e-03 9.30360400e-02
        2 -1    0    0  502    0 +0.0000000000e+00 +0.0000000000e+00 +1.5209061502e+03 1.5209061502e+03 0.0000000000e+00 0.0000e+00 1.0000e+00
       -2 -1    0    0    0  501 -0.0000000000e+00 -0.0000000000e+00 -1.9468494073e+02 1.9468494073e+02 0.0000000000e+00 0.0000e+00 -1.0000e+00
  5000001  2    1    2    0    0 -2.8207190468e+01 -7.3374990600e+01 +1.2684805736e+03 1.6180538372e+03 1.0014368275e+03 0.0000e+00 0.0000e+00
  5000521  1    3    3    0    0 +4.6930075827e+02 -6.2221463752e+01 +4.1302163155e+02 6.2833238051e+02 1.0000000000e+01 0.0000e+00 -1.0000e+00
 -5000521  1    3    3    0    0 -4.9750794874e+02 -1.1153526848e+01 +8.5545894209e+02 9.8972145669e+02 1.0000000000e+01 0.0000e+00 1.0000e+00
       21  1    1    2  502  501 +2.8207190468e+01 +7.3374990600e+01 +5.7740635805e+01 9.7537253718e+01 0.0000000000e+00 0.0000e+00 -1.0000e+00
<mgrwt>
<rscale>  1 0.10045174E+04</rscale>
<asrwt>0</asrwt>
<pdfrwt beam="1">  1        2 0.23398555E+00 0.10045174E+04</pdfrwt>
<pdfrwt beam="2">  1       -2 0.29951530E-01 0.10045174E+04</pdfrwt>
<totfact> 0.12679913E+02</totfact>
</mgrwt>
</event>
<event>
 6      1 +3.0741590e+01 9.96090900e+02 7.81860800e-03 9.31284300e-02
       -1 -1    0    0    0  501 -0.0000000000e+00 +0.0000000000e+00 +2.5609573520e+02 2.5609573520e+02 0.0000000000e+00 0.0000e+00 -1.0000e+00
        1 -1    0    0  502    0 +0.0000000000e+00 -0.0000000000e+00 -1.1821627072e+03 1.1821627072e+03 0.0000000000e+00 0.0000e+00 1.0000e+00
  5000001  2    1    2    0    0 +1.2859652723e+01 -2.5189461699e+01 -7.1705237941e+02 1.2273390750e+03 9.9568931422e+02 0.0000e+00 0.0000e+00
  5000521  1    3    3    0    0 -2.3688832084e+02 +1.4580986672e+02 +1.4484960569e+02 3.1378018110e+02 1.0000000000e+01 0.0000e+00 -1.0000e+00
 -5000521  1    3    3    0    0 +2.4974797356e+02 -1.7099932842e+02 -8.6190198510e+02 9.1355889385e+02 1.0000000000e+01 0.0000e+00 1.0000e+00
       21  1    1    2  502  501 -1.2859652723e+01 +2.5189461699e+01 -2.0901459257e+02 2.1091936743e+02 0.0000000000e+00 0.0000e+00 1.0000e+00
<mgrwt>
<rscale>  1 0.99609090E+03</rscale>
<asrwt>0</asrwt>
<pdfrwt beam="1">  1        1 0.18187119E+00 0.99609090E+03</pdfrwt>
<pdfrwt beam="2">  1       -1 0.39399344E-01 0.99609090E+03</pdfrwt>
<totfact> 0.69147368E+01</totfact>
</mgrwt>
</event>
<event>
 6      1 +3.0741590e+01 1.00252200e+03 7.81860800e-03 9.30578300e-02
        1 -1    0    0  502    0 -0.0000000000e+00 +0.0000000000e+00 +2.4010890694e+03 2.4010890694e+03 0.0000000000e+00 0.0000e+00 1.0000e+00
       21 -1    0    0  501  502 +0.0000000000e+00 -0.0000000000e+00 -1.2270324031e+02 1.2270324031e+02 0.0000000000e+00 0.0000e+00 -1.0000e+00
  5000001  2    1    2    0    0 -5.2847461925e+00 -4.2892976967e+01 +2.2674849674e+03 2.4792214134e+03 1.0015902372e+03 0.0000e+00 0.0000e+00
  5000521  1    3    3    0    0 -3.1596728415e+02 -2.8778649123e+02 +4.5614948422e+02 6.2516297167e+02 1.0000000000e+01 0.0000e+00 1.0000e+00
 -5000521  1    3    3    0    0 +3.1068253796e+02 +2.4489351427e+02 +1.8113354832e+03 1.8540584417e+03 1.0000000000e+01 0.0000e+00 -1.0000e+00
        1  1    1    2  501    0 +5.2847461925e+00 +4.2892976967e+01 +1.0900861742e+01 4.4570896358e+01 0.0000000000e+00 0.0000e+00 1.0000e+00
<mgrwt>
<rscale>  1 0.10025222E+04</rscale>
<asrwt>0</asrwt>
<pdfrwt beam="1">  1       21 0.18877423E-01 0.10025222E+04</pdfrwt>
<pdfrwt beam="2">  1        1 0.36939828E+00 0.10025222E+04</pdfrwt>
<totfact> 0.43134753E+02</totfact>
</mgrwt>
</event>
<event>
 6      1 +3.0741590e+01 1.00500600e+03 7.81860800e-03 9.30307200e-02
       -1 -1    0    0    0  501 -0.0000000000e+00 +0.0000000000e+00 +2.8719374849e+02 2.8719374849e+02 0.0000000000e+00 0.0000e+00 1.0000e+00
        1 -1    0    0  502    0 +0.0000000000e+00 -0.0000000000e+00 -1.4483347533e+03 1.4483347533e+03 0.0000000000e+00 0.0000e+00 -1.0000e+00
  5000001  2    1    2    0    0 +3.2891714888e+00 -1.2572916588e+02 -1.2329811417e+03 1.5906849756e+03 9.9710458521e+02 0.0000e+00 0.0000e+00
  5000521  1    3    3    0    0 +1.1415736371e+02 +3.0800524072e+01 +1.5178363313e+02 1.9266252168e+02 1.0000000000e+01 0.0000e+00 1.0000e+00
 -5000521  1    3    3    0    0 -1.1086819222e+02 -1.5652968995e+02 -1.3847647749e+03 1.3980224539e+03 1.0000000000e+01 0.0000e+00 -1.0000e+00
       21  1    1    2  502  501 -3.2891714888e+00 +1.2572916588e+02 +7.1840136948e+01 1.4484352619e+02 0.0000000000e+00 0.0000e+00 -1.0000e+00
<mgrwt>
<rscale>  1 0.10050056E+04</rscale>
<asrwt>0</asrwt>
<pdfrwt beam="1">  1        1 0.22282073E+00 0.10050056E+04</pdfrwt>
<pdfrwt beam="2">  1       -1 0.44183653E-01 0.10050056E+04</pdfrwt>
<totfact> 0.36165206E+01</totfact>
</mgrwt>
</event>
<event>
 6      1 +3.0741590e+01 1.00283100e+03 7.81860800e-03 9.30544600e-02
        1 -1    0    0  502    0 +0.0000000000e+00 +0.0000000000e+00 +1.5012024481e+03 1.5012024481e+03 0.0000000000e+00 0.0000e+00 -1.0000e+00
       -1 -1    0    0    0  501 -0.0000000000e+00 -0.0000000000e+00 -1.7497343284e+02 1.7497343284e+02 0.0000000000e+00 0.0000e+00 1.0000e+00
  5000001  2    1    2    0    0 +2.0013696045e+01 -7.1026740492e+00 +1.2870885372e+03 1.6316452956e+03 1.0026058408e+03 0.0000e+00 0.0000e+00
  5000521  1    3    3    0    0 +8.8210193423e+01 -4.1192166546e+02 +1.9385598129e+02 4.6383255404e+02 1.0000000000e+01 0.0000e+00 1.0000e+00
 -5000521  1    3    3    0    0 -6.8196497379e+01 +4.0481899141e+02 +1.0932325559e+03 1.1678127416e+03 1.0000000000e+01 0.0000e+00 -1.0000e+00
       21  1    1    2  502  501 -2.0013696045e+01 +7.1026740492e+00 +3.9140478054e+01 4.4530585335e+01 0.0000000000e+00 0.0000e+00 -1.0000e+00
<mgrwt>
<rscale>  1 0.10028307E+04</rscale>
<asrwt>0</asrwt>
<pdfrwt beam="1">  1        1 0.23095421E+00 0.10028307E+04</pdfrwt>
<pdfrwt beam="2">  1       -1 0.26918991E-01 0.10028307E+04</pdfrwt>
<totfact> 0.80708548E+01</totfact>
</mgrwt>
</event>
<event>
 6      1 +3.0741590e+01 9.25831500e+02 7.81860800e-03 9.39385500e-02
       -2 -1    0    0    0  501 -0.0000000000e+00 +0.0000000000e+00 +8.4848327511e+02 8.4848327511e+02 0.0000000000e+00 0.0000e+00 -1.0000e+00
        2 -1    0    0  502    0 +0.0000000000e+00 -0.0000000000e+00 -3.8666637942e+02 3.8666637942e+02 0.0000000000e+00 0.0000e+00 1.0000e+00
  5000001  2    1    2    0    0 +2.5079905631e+01 +8.5001796361e-01 +1.6884104359e+02 9.4110106312e+02 9.2549132293e+02 0.0000e+00 0.0000e+00
  5000521  1    3    3    0    0 -3.4945654474e+02 -2.7823372064e+02 +1.5757653823e+02 4.7377657747e+02 1.0000000000e+01 0.0000e+00 -1.0000e+00
 -5000521  1    3    3    0    0 +3.7453645037e+02 +2.7908373860e+02 +1.1264505363e+01 4.6732448565e+02 1.0000000000e+01 0.0000e+00 1.0000e+00
       21  1    1    2  502  501 -2.5079905631e+01 -8.5001796361e-01 +2.9297585210e+02 2.9404859141e+02 0.0000000000e+00 0.0000e+00 -1.0000e+00
<mgrwt>
<rscale>  1 0.92583147E+03</rscale>
<asrwt>0</asrwt>
<pdfrwt beam="1">  1        2 0.59487135E-01 0.92583147E+03</pdfrwt>
<pdfrwt beam="2">  1       -2 0.13053589E+00 0.92583147E+03</pdfrwt>
<totfact> 0.35530823E+01</totfact>
</mgrwt>
</event>
<event>
 6      1 +3.0741590e+01 9.10559300e+02 7.81860800e-03 9.41247700e-02
       -2 -1    0    0    0  501 -0.0000000000e+00 +0.0000000000e+00 +1.5713253555e+02 1.5713253555e+02 0.0000000000e+00 0.0000e+00 1.0000e+00
        2 -1    0    0  502    0 +0.0000000000e+00 -0.0000000000e+00 -1.3861530145e+03 1.3861530145e+03 0.0000000000e+00 0.0000e+00 -1.0000e+00
  5000001  2    1    2    0    0 +6.5175827991e+00 +1.9063269083e+01 -1.2166059248e+03 1.5196210563e+03 9.1033636154e+02 0.0000e+00 0.0000e+00
  5000521  1    3    3    0    0 -1.9003761235e+02 +1.8499764510e+02 +1.0690496573e+01 2.6561760016e+02 1.0000000000e+01 0.0000e+00 1.0000e+00
 -5000521  1    3    3    0    0 +1.9655519515e+02 -1.6593437601e+02 -1.2272964214e+03 1.2540034561e+03 1.0000000000e+01 0.0000e+00 -1.0000e+00
       21  1    1    2  502  501 -6.5175827991e+00 -1.9063269083e+01 -1.2414554149e+01 2.3664493833e+01 0.0000000000e+00 0.0000e+00 1.0000e+00
<mgrwt>
<rscale>  1 0.91055927E+03</rscale>
<asrwt>0</asrwt>
<pdfrwt beam="1">  1        2 0.21325431E+00 0.91055927E+03</pdfrwt>
<pdfrwt beam="2">  1       -2 0.24174236E-01 0.91055927E+03</pdfrwt>
<totfact> 0.22504790E+02</totfact>
</mgrwt>
</event>
<event>
 6      1 +3.0741590e+01 9.98197300e+02 7.81860800e-03 9.31052400e-02
        1 -1    0    0  502    0 +0.0000000000e+00 +0.0000000000e+00 +3.7205113985e+02 3.7205113985e+02 0.0000000000e+00 0.0000e+00 1.0000e+00
       -1 -1    0    0    0  501 -0.0000000000e+00 -0.0000000000e+00 -7.3000080157e+02 7.3000080157e+02 0.0000000000e+00 0.0000e+00 -1.0000e+00
  5000001  2    1    2    0    0 +2.1745924850e+01 -3.0024830828e+01 -3.6761854023e+02 1.0637392422e+03 9.9750860070e+02 0.0000e+00 0.0000e+00
  5000521  1    3    3    0    0 -2.4596528429e+02 +3.9044133956e+01 -6.3304509288e+02 6.8034509999e+02 1.0000000000e+01 0.0000e+00 -1.0000e+00
 -5000521  1    3    3    0    0 +2.6771120914e+02 -6.9068964784e+01 +2.6542655265e+02 3.8339414216e+02 1.0000000000e+01 0.0000e+00 1.0000e+00
       21  1    1    2  502  501 -2.1745924850e+01 +3.0024830828e+01 +9.6688785060e+00 3.8312699271e+01 0.0000000000e+00 0.0000e+00 1.0000e+00
<mgrwt>
<rscale>  1 0.99819727E+03</rscale>
<asrwt>0</asrwt>
<pdfrwt beam="1">  1        1 0.57238637E-01 0.99819727E+03</pdfrwt>
<pdfrwt beam="2">  1       -1 0.11230782E+00 0.99819727E+03</pdfrwt>
<totfact> 0.48144594E+01</totfact>
</mgrwt>
</event>
<event>
 6      1 +3.0741590e+01 1.00008700e+03 7.81860800e-03 9.30844900e-02
        1 -1    0    0  502    0 +0.0000000000e+00 +0.0000000000e+00 +1.1368419537e+03 1.1368419537e+03 0.0000000000e+00 0.0000e+00 1.0000e+00
       -1 -1    0    0    0  501 -0.0000000000e+00 -0.0000000000e+00 -5.7505841753e+02 5.7505841753e+02 0.0000000000e+00 0.0000e+00 -1.0000e+00
  5000001  2    1    2    0    0 -1.4719599734e+01 -1.4180674737e+01 -1.3998288270e+02 1.0098363679e+03 9.9987825472e+02 0.0000e+00 0.0000e+00
  5000521  1    3    3    0    0 -3.1929513407e+01 -5.7392936798e+01 +4.3139542472e+02 4.3648076188e+02 1.0000000000e+01 0.0000e+00 1.0000e+00
 -5000521  1    3    3    0    0 +1.7209913673e+01 +4.3212262061e+01 -5.7137830742e+02 5.7335560599e+02 1.0000000000e+01 0.0000e+00 -1.0000e+00
       21  1    1    2  502  501 +1.4719599734e+01 +1.4180674737e+01 +7.0176641886e+02 7.0206400334e+02 0.0000000000e+00 0.0000e+00 1.0000e+00
<mgrwt>
<rscale>  1 0.10000871E+04</rscale>
<asrwt>0</asrwt>
<pdfrwt beam="1">  1        1 0.17489876E+00 0.10000871E+04</pdfrwt>
<pdfrwt beam="2">  1       -1 0.88470526E-01 0.10000871E+04</pdfrwt>
<totfact> 0.14974400E+01</totfact>
</mgrwt>
</event>
<event>
 6      1 +3.0741590e+01 1.00388400e+03 7.81860800e-03 9.30429600e-02
       -1 -1    0    0    0  501 -0.0000000000e+00 +0.0000000000e+00 +1.0880888866e+03 1.0880888866e+03 0.0000000000e+00 0.0000e+00 1.0000e+00
        1 -1    0    0  502    0 +0.0000000000e+00 -0.0000000000e+00 -2.9142813695e+02 2.9142813695e+02 0.0000000000e+00 0.0000e+00 -1.0000e+00
  5000001  2    1    2    0    0 +6.6488693132e+00 -2.7089903393e+01 +8.5255156957e+02 1.3170522008e+03 1.0034960142e+03 0.0000e+00 0.0000e+00
  5000521  1    3    3    0    0 +2.5835611926e+02 -1.7515001761e+02 +9.5706558455e+02 1.0067273445e+03 1.0000000000e+01 0.0000e+00 1.0000e+00
 -5000521  1    3    3    0    0 -2.5170724995e+02 +1.4806011422e+02 -1.0451401498e+02 3.1032485628e+02 1.0000000000e+01 0.0000e+00 -1.0000e+00
       21  1    1    2  502  501 -6.6488693132e+00 +2.7089903393e+01 -5.5890819937e+01 6.2464822758e+01 0.0000000000e+00 0.0000e+00 1.0000e+00
<mgrwt>
<rscale>  1 0.10038836E+04</rscale>
<asrwt>0</asrwt>
<pdfrwt beam="1">  1        1 0.44835098E-01 0.10038836E+04</pdfrwt>
<pdfrwt beam="2">  1       -1 0.16739829E+00 0.10038836E+04</pdfrwt>
<totfact> 0.23493207E+01</totfact>
</mgrwt>
</event>
<event>
 6      1 +3.0741590e+01 9.38137000e+02 7.81860800e-03 9.37912500e-02
       -2 -1    0    0    0  501 -0.0000000000e+00 +0.0000000000e+00 +2.5206166344e+03 2.5206166344e+03 0.0000000000e+00 0.0000e+00 -1.0000e+00
        2 -1    0    0  502    0 +0.0000000000e+00 -0.0000000000e+00 -9.3457259665e+01 9.3457259665e+01 0.0000000000e+00 0.0000e+00 1.0000e+00
  5000001  2    1    2    0    0 +1.4893280291e-02 +3.2547893059e+01 +2.3422641409e+03 2.5231532347e+03 9.3757217038e+02 0.0000e+00 0.0000e+00
  5000521  1    3    3    0    0 +3.7088854402e+02 -7.3806369729e+01 +1.8949909974e+03 1.9323810630e+03 1.0000000000e+01 0.0000e+00 -1.0000e+00
 -5000521  1    3    3    0    0 -3.7087365074e+02 +1.0635426279e+02 +4.4727314343e+02 5.9077217171e+02 1.0000000000e+01 0.0000e+00 1.0000e+00
       21  1    1    2  502  501 -1.4893280291e-02 -3.2547893059e+01 +8.4895233903e+01 9.0920659389e+01 0.0000000000e+00 0.0000e+00 -1.0000e+00
<mgrwt>
<rscale>  1 0.93813695E+03</rscale>
<asrwt>0</asrwt>
<pdfrwt beam="1">  1        2 0.14378042E-01 0.93813695E+03</pdfrwt>
<pdfrwt beam="2">  1       -2 0.38778712E+00 0.93813695E+03</pdfrwt>
<totfact> 0.39034778E+00</totfact>
</mgrwt>
</event>
<event>
 6      1 +3.0741590e+01 1.01508600e+03 7.81860800e-03 9.29215200e-02
       -2 -1    0    0    0  501 -0.0000000000e+00 +0.0000000000e+00 +2.1659833756e+02 2.1659833756e+02 0.0000000000e+00 0.0000e+00 -1.0000e+00
        2 -1    0    0  502    0 +0.0000000000e+00 -0.0000000000e+00 -1.8314828510e+03 1.8314828510e+03 0.0000000000e+00 0.0000e+00 1.0000e+00
  5000001  2    1    2    0    0 -1.9093302111e+01 +2.9188516157e+01 -1.6865015855e+03 1.9684223619e+03 1.0144863100e+03 0.0000e+00 0.0000e+00
  5000521  1    3    3    0    0 +2.8349758002e+02 -1.2751271719e+02 -7.3222953983e+01 3.1951834362e+02 1.0000000000e+01 0.0000e+00 -1.0000e+00
 -5000521  1    3    3    0    0 -3.0259088213e+02 +1.5670123335e+02 -1.6132786315e+03 1.6489040182e+03 1.0000000000e+01 0.0000e+00 1.0000e+00
       21  1    1    2  502  501 +1.9093302111e+01 -2.9188516157e+01 +7.1617072057e+01 7.9658826698e+01 0.0000000000e+00 0.0000e+00 -1.0000e+00
<mgrwt>
<rscale>  1 0.10150857E+04</rscale>
<asrwt>0</asrwt>
<pdfrwt beam="1">  1        2 0.28176659E+00 0.10150857E+04</pdfrwt>
<pdfrwt beam="2">  1       -2 0.33322821E-01 0.10150857E+04</pdfrwt>
<totfact> 0.69747325E+01</totfact>
</mgrwt>
</event>
<event>
 6      1 +3.0741590e+01 9.98149800e+02 7.81860800e-03 9.31057600e-02
       -1 -1    0    0    0  501 -0.0000000000e+00 +0.0000000000e+00 +1.5745211085e+03 1.5745211085e+03 0.0000000000e+00 0.0000e+00 -1.0000e+00
        1 -1    0    0  502    0 +0.0000000000e+00 -0.0000000000e+00 -2.5691728590e+02 2.5691728590e+02 0.0000000000e+00 0.0000e+00 1.0000e+00
  5000001  2    1    2    0    0 -1.1853651242e+01 +1.8112704944e+01 +1.4150222215e+03 1.7316439878e+03 9.9791504341e+02 0.0000e+00 0.0000e+00
  5000521  1    3    3    0    0 -8.9094266857e+01 +7.6175812700e+01 -1.3472135107e+02 1.7885856217e+02 1.0000000000e+01 0.0000e+00 1.0000e+00
 -5000521  1    3    3    0    0 +7.7240615615e+01 -5.8063107756e+01 +1.5497435726e+03 1.5527854256e+03 1.0000000000e+01 0.0000e+00 -1.0000e+00
       21  1    1    2  502  501 +1.1853651242e+01 -1.8112704944e+01 -9.7418398964e+01 9.9794406582e+01 0.0000000000e+00 0.0000e+00 1.0000e+00
<mgrwt>
<rscale>  1 0.99814979E+03</rscale>
<asrwt>0</asrwt>
<pdfrwt beam="1">  1        1 0.39525738E-01 0.99814979E+03</pdfrwt>
<pdfrwt beam="2">  1       -1 0.24223401E+00 0.99814979E+03</pdfrwt>
<totfact> 0.84794108E+00</totfact>
</mgrwt>
</event>
<event>
 6      1 +3.0741590e+01 1.00328700e+03 7.81860800e-03 9.30494700e-02
       -2 -1    0    0    0  501 -0.0000000000e+00 +0.0000000000e+00 +2.8527861173e+02 2.8527861173e+02 0.0000000000e+00 0.0000e+00 1.0000e+00
        2 -1    0    0  502    0 +0.0000000000e+00 -0.0000000000e+00 -9.9409084621e+02 9.9409084621e+02 0.0000000000e+00 0.0000e+00 -1.0000e+00
  5000001  2    1    2    0    0 -5.0547037879e+01 -3.0666469668e+01 -6.8870283709e+02 1.2169208930e+03 1.0015435221e+03 0.0000e+00 0.0000e+00
  5000521  1    3    3    0    0 +4.5432986190e+02 -1.5999914307e+02 -3.4377598444e+02 5.9185916963e+02 1.0000000000e+01 0.0000e+00 1.0000e+00
 -5000521  1    3    3    0    0 -5.0487689977e+02 +1.2933267341e+02 -3.4492685265e+02 6.2506172336e+02 1.0000000000e+01 0.0000e+00 -1.0000e+00
       21  1    1    2  502  501 +5.0547037879e+01 +3.0666469668e+01 -2.0109397387e+01 6.2448564944e+01 0.0000000000e+00 0.0000e+00 -1.0000e+00
<mgrwt>
<rscale>  1 0.10032870E+04</rscale>
<asrwt>0</asrwt>
<pdfrwt beam="1">  1        2 0.15293705E+00 0.10032870E+04</pdfrwt>
<pdfrwt beam="2">  1       -2 0.43889017E-01 0.10032870E+04</pdfrwt>
<totfact> 0.12477276E+02</totfact>
</mgrwt>
</event>
<event>
 6      1 +3.0741590e+01 9.98103600e+02 7.81860800e-03 9.31062700e-02
        2 -1    0    0  502    0 +0.0000000000e+00 +0.0000000000e+00 +4.0577514791e+02 4.0577514791e+02 0.0000000000e+00 0.0000e+00 -1.0000e+00
       -2 -1    0    0    0  501 -0.0000000000e+00 -0.0000000000e+00 -7.0614699732e+02 7.0614699732e+02 0.0000000000e+00 0.0000e+00 1.0000e+00
  5000001  2    1    2    0    0 -7.1571375343e+01 -3.1871561952e+00 -2.6903826645e+02 1.0337274322e+03 9.9552910326e+02 0.0000e+00 0.0000e+00
  5000521  1    3    3    0    0 +5.1483839735e+01 +9.3976067116e+01 +3.6498897621e+02 3.8052469000e+02 1.0000000000e+01 0.0000e+00 -1.0000e+00
 -5000521  1    3    3    0    0 -1.2305521508e+02 -9.7163223312e+01 -6.3402724266e+02 6.5320274216e+02 1.0000000000e+01 0.0000e+00 1.0000e+00
       21  1    1    2  502  501 +7.1571375343e+01 +3.1871561952e+00 -3.1333582953e+01 7.8194713081e+01 0.0000000000e+00 0.0000e+00 -1.0000e+00
<mgrwt>
<rscale>  1 0.99810361E+03</rscale>
<asrwt>0</asrwt>
<pdfrwt beam="1">  1        2 0.62426947E-01 0.99810361E+03</pdfrwt>
<pdfrwt beam="2">  1       -2 0.10863800E+00 0.99810361E+03</pdfrwt>
<totfact> 0.52864028E+01</totfact>
</mgrwt>
</event>
<event>
 6      1 +3.0741590e+01 1.00056000e+03 7.81860800e-03 9.30793000e-02
       -3 -1    0    0    0  501 -0.0000000000e+00 +0.0000000000e+00 +6.6915101231e+02 6.6915101231e+02 0.0000000000e+00 0.0000e+00 -1.0000e+00
        3 -1    0    0  502    0 +0.0000000000e+00 -0.0000000000e+00 -7.2042553966e+02 7.2042553966e+02 0.0000000000e+00 0.0000e+00 1.0000e+00
  5000001  2    1    2    0    0 -6.3889567229e+01 -2.7559253513e+00 -3.6827982286e+02 1.0661854122e+03 9.9851481373e+02 0.0000e+00 0.0000e+00
  5000521  1    3    3    0    0 -1.1525745990e+02 -4.3688840943e+02 +5.7826834483e+01 4.5563110862e+02 1.0000000000e+01 0.0000e+00 -1.0000e+00
 -5000521  1    3    3    0    0 +5.1367892671e+01 +4.3413248408e+02 -4.2610665734e+02 6.1055430353e+02 1.0000000000e+01 0.0000e+00 1.0000e+00
       21  1    1    2  502  501 +6.3889567229e+01 +2.7559253513e+00 +3.1700529551e+02 3.2339113981e+02 0.0000000000e+00 0.0000e+00 -1.0000e+00
<mgrwt>
<rscale>  1 0.10005605E+04</rscale>
<asrwt>0</asrwt>
<pdfrwt beam="1">  1        3 0.11083470E+00 0.10005605E+04</pdfrwt>
<pdfrwt beam="2">  1       -3 0.10294631E+00 0.10005605E+04</pdfrwt>
<totfact> 0.14428553E+00</totfact>
</mgrwt>
</event>
<event>
 6      1 +3.0741590e+01 1.10332000e+03 7.81860800e-03 9.20196200e-02
       -1 -1    0    0    0  501 -0.0000000000e+00 +0.0000000000e+00 +2.3088289472e+02 2.3088289472e+02 0.0000000000e+00 0.0000e+00 -1.0000e+00
        1 -1    0    0  502    0 +0.0000000000e+00 -0.0000000000e+00 -2.4389629664e+03 2.4389629664e+03 0.0000000000e+00 0.0000e+00 1.0000e+00
  5000001  2    1    2    0    0 +6.4802335962e+00 +3.9740168132e+02 -1.6324183091e+03 1.9703056160e+03 1.0292446719e+03 0.0000e+00 0.0000e+00
  5000521  1    3    3    0    0 -9.4885193942e+01 -3.4189252229e+02 -4.7065258369e+02 5.8949771107e+02 1.0000000000e+01 0.0000e+00 1.0000e+00
 -5000521  1    3    3    0    0 +1.0136542754e+02 +7.3929420361e+02 -1.1617657254e+03 1.3808079049e+03 1.0000000000e+01 0.0000e+00 -1.0000e+00
       21  1    1    2  502  501 -6.4802335962e+00 -3.9740168132e+02 -5.7566176261e+02 6.9954024521e+02 0.0000000000e+00 0.0000e+00 1.0000e+00
<mgrwt>
<rscale>  1 0.11033198E+04</rscale>
<asrwt>0</asrwt>
<pdfrwt beam="1">  1        1 0.37522505E+00 0.11033198E+04</pdfrwt>
<pdfrwt beam="2">  1       -1 0.35520447E-01 0.11033198E+04</pdfrwt>
<totfact> 0.11335550E+01</totfact>
</mgrwt>
</event>
<event>
 6      1 +3.0741590e+01 1.01871300e+03 7.81860800e-03 9.28825600e-02
        2 -1    0    0  502    0 +0.0000000000e+00 +0.0000000000e+00 +9.8242303074e+02 9.8242303074e+02 0.0000000000e+00 0.0000e+00 1.0000e+00
       -2 -1    0    0    0  501 -0.0000000000e+00 -0.0000000000e+00 -6.4510058923e+02 6.4510058923e+02 0.0000000000e+00 0.0000e+00 -1.0000e+00
  5000001  2    1    2    0    0 -2.0434294977e+02 +3.3653209332e+01 +6.8163717995e+02 1.2257261353e+03 9.9744009040e+02 0.0000e+00 0.0000e+00
  5000521  1    3    3    0    0 -2.3015513019e+02 +4.4655277682e+02 +6.3428996448e+02 8.0919992923e+02 1.0000000000e+01 0.0000e+00 1.0000e+00
 -5000521  1    3    3    0    0 +2.5812180414e+01 -4.1289956748e+02 +4.7347215473e+01 4.1652620602e+02 1.0000000000e+01 0.0000e+00 -1.0000e+00
       21  1    1    2  502  501 +2.0434294977e+02 -3.3653209332e+01 -3.4431473844e+02 4.0179748472e+02 0.0000000000e+00 0.0000e+00 -1.0000e+00
<mgrwt>
<rscale>  1 0.10187126E+04</rscale>
<asrwt>0</asrwt>
<pdfrwt beam="1">  1        2 0.15114200E+00 0.10187126E+04</pdfrwt>
<pdfrwt beam="2">  1       -2 0.99246244E-01 0.10187126E+04</pdfrwt>
<totfact> 0.21585363E+01</totfact>
</mgrwt>
</event>
<event>
 6      1 +3.0741590e+01 9.99111500e+02 7.81860800e-03 9.30952000e-02
       -1 -1    0    0    0  501 -0.0000000000e+00 +0.0000000000e+00 +4.2580686052e+02 4.2580686052e+02 0.0000000000e+00 0.0000e+00 -1.0000e+00
       21 -1    0    0  501  502 +0.0000000000e+00 -0.0000000000e+00 -7.0676358845e+02 7.0676358845e+02 0.0000000000e+00 0.0000e+00 1.0000e+00
  5000001  2    1    2    0    0 -7.8151023472e+01 -5.3447956973e+01 -2.3078853882e+02 1.0254204897e+03 9.9461528464e+02 0.0000e+00 0.0000e+00
  5000521  1    3    3    0    0 -1.3327526785e+02 -2.0366436597e+02 -5.8659297298e+02 6.3516359069e+02 1.0000000000e+01 0.0000e+00 1.0000e+00
 -5000521  1    3    3    0    0 +5.5124244382e+01 +1.5021640899e+02 +3.5580443416e+02 3.9025689900e+02 1.0000000000e+01 0.0000e+00 -1.0000e+00
       -1  1    1    2    0  502 +7.8151023472e+01 +5.3447956973e+01 -5.0168189116e+01 1.0714995928e+02 0.0000000000e+00 0.0000e+00 -1.0000e+00
<mgrwt>
<rscale>  1 0.99911152E+03</rscale>
<asrwt>0</asrwt>
<pdfrwt beam="1">  1       21 0.10873286E+00 0.99911152E+03</pdfrwt>
<pdfrwt beam="2">  1       -1 0.65508749E-01 0.99911152E+03</pdfrwt>
<totfact> 0.12359183E+02</totfact>
</mgrwt>
</event>
<event>
 6      1 +3.0741590e+01 9.98879000e+02 7.81860800e-03 9.30977500e-02
       -2 -1    0    0    0  501 -0.0000000000e+00 +0.0000000000e+00 +1.1114818857e+02 1.1114818857e+02 0.0000000000e+00 0.0000e+00 -1.0000e+00
        2 -1    0    0  502    0 +0.0000000000e+00 -0.0000000000e+00 -2.4638804478e+03 2.4638804478e+03 0.0000000000e+00 0.0000e+00 1.0000e+00
  5000001  2    1    2    0    0 -2.5766094485e+00 +2.0175337153e+01 -2.3512561758e+03 2.5546359424e+03 9.9867187340e+02 0.0000e+00 0.0000e+00
  5000521  1    3    3    0    0 +3.0212485867e+02 +1.5706102893e+02 -2.3906894352e+02 4.1617491129e+02 1.0000000000e+01 0.0000e+00 -1.0000e+00
 -5000521  1    3    3    0    0 -3.0470146811e+02 -1.3688569177e+02 -2.1121872323e+03 2.1384610311e+03 1.0000000000e+01 0.0000e+00 1.0000e+00
       21  1    1    2  502  501 +2.5766094485e+00 -2.0175337153e+01 -1.4760834148e+00 2.0392693980e+01 0.0000000000e+00 0.0000e+00 1.0000e+00
<mgrwt>
<rscale>  1 0.99887897E+03</rscale>
<asrwt>0</asrwt>
<pdfrwt beam="1">  1        2 0.37905849E+00 0.99887897E+03</pdfrwt>
<pdfrwt beam="2">  1       -2 0.17099723E-01 0.99887897E+03</pdfrwt>
<totfact> 0.10355463E+02</totfact>
</mgrwt>
</event>
<event>
 6      1 +3.0741590e+01 1.00245800e+03 7.81860800e-03 9.30585300e-02
       -2 -1    0    0    0  501 -0.0000000000e+00 +0.0000000000e+00 +8.4730619172e+02 8.4730619172e+02 0.0000000000e+00 0.0000e+00 1.0000e+00
        2 -1    0    0  502    0 +0.0000000000e+00 -0.0000000000e+00 -3.6123870519e+02 3.6123870519e+02 0.0000000000e+00 0.0000e+00 -1.0000e+00
  5000001  2    1    2    0    0 +2.1695565423e+01 +1.6646469452e+01 +5.4683587983e+02 1.1419070688e+03 1.0020850622e+03 0.0000e+00 0.0000e+00
  5000521  1    3    3    0    0 +2.1844294695e+02 -4.1347008302e+02 +4.6916480175e+02 6.6248806920e+02 1.0000000000e+01 0.0000e+00 1.0000e+00
 -5000521  1    3    3    0    0 -1.9674738153e+02 +4.3011655248e+02 +7.7671078076e+01 4.7941899965e+02 1.0000000000e+01 0.0000e+00 -1.0000e+00
       21  1    1    2  502  501 -2.1695565423e+01 -1.6646469452e+01 -6.0768393301e+01 6.6637828060e+01 0.0000000000e+00 0.0000e+00 1.0000e+00
<mgrwt>
<rscale>  1 0.10024581E+04</rscale>
<asrwt>0</asrwt>
<pdfrwt beam="1">  1        2 0.55575186E-01 0.10024581E+04</pdfrwt>
<pdfrwt beam="2">  1       -2 0.13035480E+00 0.10024581E+04</pdfrwt>
<totfact> 0.38343849E+01</totfact>
</mgrwt>
</event>
<event>
 6      1 +3.0741590e+01 1.00128300e+03 7.81860800e-03 9.30713900e-02
       -3 -1    0    0    0  501 -0.0000000000e+00 +0.0000000000e+00 +2.8507220106e+02 2.8507220106e+02 0.0000000000e+00 0.0000e+00 1.0000e+00
        3 -1    0    0  502    0 +0.0000000000e+00 -0.0000000000e+00 -9.6068456480e+02 9.6068456480e+02 0.0000000000e+00 0.0000e+00 -1.0000e+00
  5000001  2    1    2    0    0 -3.8870901585e+01 +1.2411307490e+01 -6.6951630838e+02 1.2044996521e+03 1.0004510669e+03 0.0000e+00 0.0000e+00
  5000521  1    3    3    0    0 +4.1453291929e+02 -2.2548512378e+02 -2.1063142831e+02 5.1686234223e+02 1.0000000000e+01 0.0000e+00 1.0000e+00
 -5000521  1    3    3    0    0 -4.5340382087e+02 +2.3789643127e+02 -4.5888488007e+02 6.8763730989e+02 1.0000000000e+01 0.0000e+00 -1.0000e+00
       21  1    1    2  502  501 +3.8870901585e+01 -1.2411307490e+01 -6.0960553626e+00 4.1257113746e+01 0.0000000000e+00 0.0000e+00 -1.0000e+00
<mgrwt>
<rscale>  1 0.10012828E+04</rscale>
<asrwt>0</asrwt>
<pdfrwt beam="1">  1        3 0.14779762E+00 0.10012828E+04</pdfrwt>
<pdfrwt beam="2">  1       -3 0.43857262E-01 0.10012828E+04</pdfrwt>
<totfact> 0.45445301E+00</totfact>
</mgrwt>
</event>
<event>
 6      1 +3.0741590e+01 1.02379900e+03 7.81860800e-03 9.28282100e-02
       -2 -1    0    0    0  501 -0.0000000000e+00 +0.0000000000e+00 +4.9067540396e+02 4.9067540396e+02 0.0000000000e+00 0.0000e+00 -1.0000e+00
        2 -1    0    0  502    0 +0.0000000000e+00 -0.0000000000e+00 -5.8694115130e+02 5.8694115130e+02 0.0000000000e+00 0.0000e+00 1.0000e+00
  5000001  2    1    2    0    0 +1.3807702536e+01 +3.3187889123e+01 -5.8484641473e+01 1.0254677241e+03 1.0231673916e+03 0.0000e+00 0.0000e+00
  5000521  1    3    3    0    0 +1.7108580502e+02 +1.2155015511e+02 +4.4415386458e+02 4.9134249593e+02 1.0000000000e+01 0.0000e+00 -1.0000e+00
 -5000521  1    3    3    0    0 -1.5727810248e+02 -8.8362265990e+01 -5.0263850605e+02 5.3412522814e+02 1.0000000000e+01 0.0000e+00 1.0000e+00
       21  1    1    2  502  501 -1.3807702536e+01 -3.3187889123e+01 -3.7781105862e+01 5.2148831184e+01 0.0000000000e+00 0.0000e+00 -1.0000e+00
<mgrwt>
<rscale>  1 0.10237986E+04</rscale>
<asrwt>0</asrwt>
<pdfrwt beam="1">  1        2 0.90298638E-01 0.10237986E+04</pdfrwt>
<pdfrwt beam="2">  1       -2 0.75488524E-01 0.10237986E+04</pdfrwt>
<totfact> 0.79947576E+01</totfact>
</mgrwt>
</event>
<event>
 6      1 +3.0741590e+01 9.99922500e+02 7.81860800e-03 9.30863000e-02
       -2 -1    0    0    0  501 -0.0000000000e+00 +0.0000000000e+00 +9.0999611835e+01 9.0999611835e+01 0.0000000000e+00 0.0000e+00 1.0000e+00
        2 -1    0    0  502    0 +0.0000000000e+00 -0.0000000000e+00 -2.9474056599e+03 2.9474056599e+03 0.0000000000e+00 0.0000e+00 -1.0000e+00
  5000001  2    1    2    0    0 +3.0192340362e+01 -1.7551220341e+01 -2.7811010278e+03 2.9553964238e+03 9.9931249990e+02 0.0000e+00 0.0000e+00
  5000521  1    3    3    0    0 +2.0945321981e+02 +4.4783613125e+02 -1.2149987803e+03 1.3117735658e+03 1.0000000000e+01 0.0000e+00 1.0000e+00
 -5000521  1    3    3    0    0 -1.7926087945e+02 -4.6538735159e+02 -1.5661022475e+03 1.6436228581e+03 1.0000000000e+01 0.0000e+00 -1.0000e+00
       21  1    1    2  502  501 -3.0192340362e+01 +1.7551220341e+01 -7.5305020277e+01 8.3008847908e+01 0.0000000000e+00 0.0000e+00 -1.0000e+00
<mgrwt>
<rscale>  1 0.99992254E+03</rscale>
<asrwt>0</asrwt>
<pdfrwt beam="1">  1        2 0.45344698E+00 0.99992254E+03</pdfrwt>
<pdfrwt beam="2">  1       -2 0.13999942E-01 0.99992254E+03</pdfrwt>
<totfact> 0.75646429E+01</totfact>
</mgrwt>
</event>
<event>
 5      1 +3.0741590e+01 1.26136000e+03 7.81860800e-03 9.06078100e-02
        2 -1    0    0  502    0 +0.0000000000e+00 +0.0000000000e+00 +1.9309558391e+02 1.9309558391e+02 0.0000000000e+00 0.0000e+00 -1.0000e+00
       -2 -1    0    0    0  501 -0.0000000000e+00 -0.0000000000e+00 -2.4347558208e+03 2.4347558208e+03 0.0000000000e+00 0.0000e+00 1.0000e+00
  5000521  1    1    2    0    0 +7.3116456026e+01 -5.9418640770e+02 -1.0035041165e+03 1.1685563808e+03 1.0000000000e+01 0.0000e+00 -1.0000e+00
 -5000521  1    1    2    0    0 -1.1840679721e+02 +6.4757996350e+02 -9.0672368179e+02 1.1205479971e+03 1.0000000000e+01 0.0000e+00 1.0000e+00
       21  1    1    2  502  501 +4.5290341184e+01 -5.3393555800e+01 -3.3143243866e+02 3.3874702685e+02 0.0000000000e+00 0.0000e+00 1.0000e+00
<mgrwt>
<rscale>  1 0.12613598E+04</rscale>
<asrwt>0</asrwt>
<pdfrwt beam="1">  1        2 0.29707016E-01 0.12613598E+04</pdfrwt>
<pdfrwt beam="2">  1       -2 0.37457778E+00 0.12613598E+04</pdfrwt>
<totfact> 0.19455059E+00</totfact>
</mgrwt>
</event>
<event>
 6      1 +3.0741590e+01 1.00934900e+03 7.81860800e-03 9.29835000e-02
        1 -1    0    0  502    0 +0.0000000000e+00 +0.0000000000e+00 +2.4226503857e+03 2.4226503857e+03 0.0000000000e+00 0.0000e+00 1.0000e+00
       -1 -1    0    0    0  501 -0.0000000000e+00 -0.0000000000e+00 -1.2201193924e+02 1.2201193924e+02 0.0000000000e+00 0.0000e+00 -1.0000e+00
  5000001  2    1    2    0    0 +5.1750965180e+01 +4.8013506698e+01 +2.2115475653e+03 2.4309933128e+03 1.0068775466e+03 0.0000e+00 0.0000e+00
  5000521  1    3    3    0    0 -6.9135367277e+01 -2.1037006107e+02 +2.1815566908e+01 2.2273567420e+02 1.0000000000e+01 0.0000e+00 -1.0000e+00
 -5000521  1    3    3    0    0 +1.2088633246e+02 +2.5838356777e+02 +2.1897319984e+03 2.2082576386e+03 1.0000000000e+01 0.0000e+00 1.0000e+00
       21  1    1    2  502  501 -5.1750965180e+01 -4.8013506698e+01 +8.9090881113e+01 1.1366901214e+02 0.0000000000e+00 0.0000e+00 1.0000e+00
<mgrwt>
<rscale>  1 0.10093492E+04</rscale>
<asrwt>0</asrwt>
<pdfrwt beam="1">  1        1 0.37271541E+00 0.10093492E+04</pdfrwt>
<pdfrwt beam="2">  1       -1 0.18771069E-01 0.10093492E+04</pdfrwt>
<totfact> 0.35294289E+01</totfact>
</mgrwt>
</event>
<event>
 6      1 +3.0741590e+01 1.00836000e+03 7.81860800e-03 9.29942300e-02
        1 -1    0    0  502    0 +0.0000000000e+00 +0.0000000000e+00 +8.4350951605e+02 8.4350951605e+02 0.0000000000e+00 0.0000e+00 1.0000e+00
       -1 -1    0    0    0  501 -0.0000000000e+00 -0.0000000000e+00 -3.3468552867e+02 3.3468552867e+02 0.0000000000e+00 0.0000e+00 -1.0000e+00
  5000001  2    1    2    0    0 +4.2483366575e+01 -1.7237584491e+00 +5.1955985666e+02 1.1343422607e+03 1.0074632062e+03 0.0000e+00 0.0000e+00
  5000521  1    3    3    0    0 -7.2275255659e+01 -4.0652875890e+01 +8.1270174377e+02 8.1698255381e+02 1.0000000000e+01 0.0000e+00 1.0000e+00
 -5000521  1    3    3    0    0 +1.1475862223e+02 +3.8929117441e+01 -2.9314188712e+02 3.1735970687e+02 1.0000000000e+01 0.0000e+00 -1.0000e+00
       21  1    1    2  502  501 -4.2483366575e+01 +1.7237584491e+00 -1.0735869278e+01 4.3852784038e+01 0.0000000000e+00 0.0000e+00 -1.0000e+00
<mgrwt>
<rscale>  1 0.10083600E+04</rscale>
<asrwt>0</asrwt>
<pdfrwt beam="1">  1        1 0.12977069E+00 0.10083600E+04</pdfrwt>
<pdfrwt beam="2">  1       -1 0.51490082E-01 0.10083600E+04</pdfrwt>
<totfact> 0.77107443E+01</totfact>
</mgrwt>
</event>
<event>
 6      1 +3.0741590e+01 1.02212500e+03 7.81860800e-03 9.28460600e-02
       -2 -1    0    0    0  501 -0.0000000000e+00 +0.0000000000e+00 +1.5821539041e+02 1.5821539041e+02 0.0000000000e+00 0.0000e+00 -1.0000e+00
        2 -1    0    0  502    0 +0.0000000000e+00 -0.0000000000e+00 -2.7063711394e+03 2.7063711394e+03 0.0000000000e+00 0.0000e+00 1.0000e+00
  5000001  2    1    2    0    0 -1.8281133512e+02 -1.1841311074e+02 -1.6544557741e+03 1.9447271415e+03 9.9864813503e+02 0.0000e+00 0.0000e+00
  5000521  1    3    3    0    0 -3.2161531198e+02 -3.4735492747e+02 -1.6035760705e+03 1.6720191591e+03 1.0000000000e+01 0.0000e+00 -1.0000e+00
 -5000521  1    3    3    0    0 +1.3880397686e+02 +2.2894181674e+02 -5.0879703575e+01 2.7270798243e+02 1.0000000000e+01 0.0000e+00 1.0000e+00
       21  1    1    2  502  501 +1.8281133512e+02 +1.1841311074e+02 -8.9369997494e+02 9.1985938830e+02 0.0000000000e+00 0.0000e+00 1.0000e+00
<mgrwt>
<rscale>  1 0.10221251E+04</rscale>
<asrwt>0</asrwt>
<pdfrwt beam="1">  1        2 0.41636481E+00 0.10221251E+04</pdfrwt>
<pdfrwt beam="2">  1       -2 0.24340828E-01 0.10221251E+04</pdfrwt>
<totfact> 0.40128353E+01</totfact>
</mgrwt>
</event>
<event>
 6      1 +3.0741590e+01 1.00628900e+03 7.81860800e-03 9.30167400e-02
       -1 -1    0    0    0  501 -0.0000000000e+00 +0.0000000000e+00 +1.3771892994e+02 1.3771892994e+02 0.0000000000e+00 0.0000e+00 1.0000e+00
        1 -1    0    0  502    0 +0.0000000000e+00 -0.0000000000e+00 -2.8682837717e+03 2.8682837717e+03 0.0000000000e+00 0.0000e+00 -1.0000e+00
  5000001  2    1    2    0    0 -7.0777313061e+01 +4.6903390282e+01 -2.7415416044e+03 2.9203881855e+03 1.0027000694e+03 0.0000e+00 0.0000e+00
  5000521  1    3    3    0    0 +3.9328390361e+02 +8.7682687592e+01 -5.6200136790e+02 6.9159671780e+02 1.0000000000e+01 0.0000e+00 1.0000e+00
 -5000521  1    3    3    0    0 -4.6406121667e+02 -4.0779297310e+01 -2.1795402365e+03 2.2287914677e+03 1.0000000000e+01 0.0000e+00 -1.0000e+00
       21  1    1    2  502  501 +7.0777313061e+01 -4.6903390282e+01 +1.0976762613e+01 8.5614516185e+01 0.0000000000e+00 0.0000e+00 1.0000e+00
<mgrwt>
<rscale>  1 0.10062886E+04</rscale>
<asrwt>0</asrwt>
<pdfrwt beam="1">  1        1 0.44127441E+00 0.10062886E+04</pdfrwt>
<pdfrwt beam="2">  1       -1 0.21187529E-01 0.10062886E+04</pdfrwt>
<totfact> 0.14112081E+01</totfact>
</mgrwt>
</event>
<event>
 6      1 +3.0741590e+01 1.00871900e+03 7.81860800e-03 9.29903300e-02
        1 -1    0    0  502    0 +0.0000000000e+00 +0.0000000000e+00 +9.3049741423e+02 9.3049741423e+02 0.0000000000e+00 0.0000e+00 -1.0000e+00
       -1 -1    0    0    0  501 -0.0000000000e+00 -0.0000000000e+00 -3.5448425553e+02 3.5448425553e+02 0.0000000000e+00 0.0000e+00 1.0000e+00
  5000001  2    1    2    0    0 -1.4553700281e+01 +8.8942714409e+01 +3.9599595967e+02 1.0836639890e+03 1.0046851369e+03 0.0000e+00 0.0000e+00
  5000521  1    3    3    0    0 +3.2751950006e+02 -2.9165924077e+02 +3.5385153555e+00 4.3868742487e+02 1.0000000000e+01 0.0000e+00 1.0000e+00
 -5000521  1    3    3    0    0 -3.4207320034e+02 +3.8060195518e+02 +3.9245744431e+02 6.4497656412e+02 1.0000000000e+01 0.0000e+00 -1.0000e+00
       21  1    1    2  502  501 +1.4553700281e+01 -8.8942714409e+01 +1.8001719904e+02 2.0131768077e+02 0.0000000000e+00 0.0000e+00 -1.0000e+00
<mgrwt>
<rscale>  1 0.10087194E+04</rscale>
<asrwt>0</asrwt>
<pdfrwt beam="1">  1        1 0.14315345E+00 0.10087194E+04</pdfrwt>
<pdfrwt beam="2">  1       -1 0.54536040E-01 0.10087194E+04</pdfrwt>
<totfact> 0.58481761E+01</totfact>
</mgrwt>
</event>
<event>
 6      1 +3.0741590e+01 1.01997100e+03 7.81860800e-03 9.28690800e-02
       -1 -1    0    0    0  501 -0.0000000000e+00 +0.0000000000e+00 +5.8024459331e+02 5.8024459331e+02 0.0000000000e+00 0.0000e+00 1.0000e+00
        1 -1    0    0  502    0 +0.0000000000e+00 -0.0000000000e+00 -5.3946079905e+02 5.3946079905e+02 0.0000000000e+00 0.0000e+00 -1.0000e+00
  5000001  2    1    2    0    0 +7.3655447448e+01 +1.1210842812e+01 +9.9545512119e+01 1.0248173140e+03 1.0172464844e+03 0.0000e+00 0.0000e+00
  5000521  1    3    3    0    0 +9.8627378019e+01 +9.5879557093e+01 -4.4870205218e+02 4.6941855608e+02 1.0000000000e+01 0.0000e+00 -1.0000e+00
 -5000521  1    3    3    0    0 -2.4971930571e+01 -8.4668714281e+01 +5.4824756430e+02 5.5539875788e+02 1.0000000000e+01 0.0000e+00 1.0000e+00
       21  1    1    2  502  501 -7.3655447448e+01 -1.1210842812e+01 -5.8761717864e+01 9.4888078396e+01 0.0000000000e+00 0.0000e+00 -1.0000e+00
<mgrwt>
<rscale>  1 0.10199712E+04</rscale>
<asrwt>0</asrwt>
<pdfrwt beam="1">  1        1 0.82993969E-01 0.10199712E+04</pdfrwt>
<pdfrwt beam="2">  1       -1 0.89268399E-01 0.10199712E+04</pdfrwt>
<totfact> 0.49114007E+01</totfact>
</mgrwt>
</event>
<event>
 6      1 +3.0741590e+01 9.95120700e+02 7.81860800e-03 9.31391300e-02
        1 -1    0    0  502    0 +0.0000000000e+00 +0.0000000000e+00 +4.9707171610e+02 4.9707171610e+02 0.0000000000e+00 0.0000e+00 1.0000e+00
       -1 -1    0    0    0  501 -0.0000000000e+00 -0.0000000000e+00 -1.0579553538e+03 1.0579553538e+03 0.0000000000e+00 0.0000e+00 -1.0000e+00
  5000001  2    1    2    0    0 +1.7619361933e+01 -2.7638795232e+01 -8.2270275972e+02 1.2911642314e+03 9.9458076423e+02 0.0000e+00 0.0000e+00
  5000521  1    3    3    0    0 +6.8005610258e+01 -1.6221156888e+02 -1.0265512912e+03 1.0415588844e+03 1.0000000000e+01 0.0000e+00 -1.0000e+00
 -5000521  1    3    3    0    0 -5.0386248324e+01 +1.3457277365e+02 +2.0384853153e+02 2.4960534697e+02 1.0000000000e+01 0.0000e+00 1.0000e+00
       21  1    1    2  502  501 -1.7619361933e+01 +2.7638795232e+01 +2.6181912201e+02 2.6386283855e+02 0.0000000000e+00 0.0000e+00 1.0000e+00
<mgrwt>
<rscale>  1 0.99512072E+03</rscale>
<asrwt>0</asrwt>
<pdfrwt beam="1">  1        1 0.76472572E-01 0.99512072E+03</pdfrwt>
<pdfrwt beam="2">  1       -1 0.16276236E+00 0.99512072E+03</pdfrwt>
<totfact> 0.12490124E+01</totfact>
</mgrwt>
</event>
<event>
 6      1 +3.0741590e+01 1.00317000e+03 7.81860800e-03 9.30507500e-02
       -2 -1    0    0    0  501 -0.0000000000e+00 +0.0000000000e+00 +7.6898671287e+01 7.6898671287e+01 0.0000000000e+00 0.0000e+00 -1.0000e+00
        2 -1    0    0  502    0 +0.0000000000e+00 -0.0000000000e+00 -3.8218566655e+03 3.8218566655e+03 0.0000000000e+00 0.0000e+00 1.0000e+00
  5000001  2    1    2    0    0 +2.7370063492e+01 -3.4144787465e+01 -3.2361666885e+03 3.3880856004e+03 1.0022146542e+03 0.0000e+00 0.0000e+00
  5000521  1    3    3    0    0 +2.4098537445e+02 -4.2456893805e+01 -3.1465545511e+03 3.1560706712e+03 1.0000000000e+01 0.0000e+00 1.0000e+00
 -5000521  1    3    3    0    0 -2.1361531096e+02 +8.3121063394e+00 -8.9612137326e+01 2.3201492914e+02 1.0000000000e+01 0.0000e+00 -1.0000e+00
       21  1    1    2  502  501 -2.7370063492e+01 +3.4144787465e+01 -5.0879130578e+02 5.1066973645e+02 0.0000000000e+00 0.0000e+00 1.0000e+00
<mgrwt>
<rscale>  1 0.10031696E+04</rscale>
<asrwt>0</asrwt>
<pdfrwt beam="1">  1        2 0.58797801E+00 0.10031696E+04</pdfrwt>
<pdfrwt beam="2">  1       -2 0.11830563E-01 0.10031696E+04</pdfrwt>
<totfact> 0.25871821E+01</totfact>
</mgrwt>
</event>
<event>
 6      1 +3.0741590e+01 1.00238900e+03 7.81860800e-03 9.30592900e-02
       -2 -1    0    0    0  501 -0.0000000000e+00 +0.0000000000e+00 +1.6894342073e+02 1.6894342073e+02 0.0000000000e+00 0.0000e+00 1.0000e+00
        2 -1    0    0  502    0 +0.0000000000e+00 -0.0000000000e+00 -1.6966316815e+03 1.6966316815e+03 0.0000000000e+00 0.0000e+00 -1.0000e+00
  5000001  2    1    2    0    0 +5.8585269742e+01 -3.4119418002e+01 -1.4151994641e+03 1.7342354742e+03 1.0000933897e+03 0.0000e+00 0.0000e+00
  5000521  1    3    3    0    0 -4.3670733365e+02 -1.9928473949e+02 -6.6888900112e+02 8.2337123976e+02 1.0000000000e+01 0.0000e+00 1.0000e+00
 -5000521  1    3    3    0    0 +4.9529260339e+02 +1.6516532149e+02 -7.4631046297e+02 9.1086423441e+02 1.0000000000e+01 0.0000e+00 -1.0000e+00
       21  1    1    2  502  501 -5.8585269742e+01 +3.4119418002e+01 -1.1248879666e+02 1.3133962803e+02 0.0000000000e+00 0.0000e+00 -1.0000e+00
<mgrwt>
<rscale>  1 0.10023887E+04</rscale>
<asrwt>0</asrwt>
<pdfrwt beam="1">  1        2 0.26102025E+00 0.10023887E+04</pdfrwt>
<pdfrwt beam="2">  1       -2 0.25991296E-01 0.10023887E+04</pdfrwt>
<totfact> 0.13151102E+02</totfact>
</mgrwt>
</event>
<event>
 6      1 +3.0741590e+01 1.01399900e+03 7.81860800e-03 9.29332300e-02
       21 -1    0    0  501  502 +0.0000000000e+00 +0.0000000000e+00 +2.9790133006e+02 2.9790133006e+02 0.0000000000e+00 0.0000e+00 1.0000e+00
        1 -1    0    0  502    0 -0.0000000000e+00 -0.0000000000e+00 -2.4272665828e+03 2.4272665828e+03 0.0000000000e+00 0.0000e+00 1.0000e+00
  5000001  2    1    2    0    0 +3.9196736349e+01 -1.3555326813e+01 -2.3190274343e+03 2.5310239607e+03 1.0131504911e+03 0.0000e+00 0.0000e+00
  5000521  1    3    3    0    0 -2.1586947240e+02 +3.8640951812e+02 -5.8736429917e+02 7.3553298005e+02 1.0000000000e+01 0.0000e+00 -1.0000e+00
 -5000521  1    3    3    0    0 +2.5506620875e+02 -3.9996484493e+02 -1.7316631351e+03 1.7954909807e+03 1.0000000000e+01 0.0000e+00 1.0000e+00
        1  1    1    2  501    0 -3.9196736349e+01 +1.3555326813e+01 +1.8966218159e+02 1.9414395214e+02 0.0000000000e+00 0.0000e+00 1.0000e+00
<mgrwt>
<rscale>  1 0.10139990E+04</rscale>
<asrwt>0</asrwt>
<pdfrwt beam="1">  1       21 0.45830975E-01 0.10139990E+04</pdfrwt>
<pdfrwt beam="2">  1        1 0.37342562E+00 0.10139990E+04</pdfrwt>
<totfact> 0.68962447E+01</totfact>
</mgrwt>
</event>
<event>
 5      1 +3.0741590e+01 3.06263100e+02 7.81860800e-03 1.08215100e-01
       -2 -1    0    0    0  501 -0.0000000000e+00 +0.0000000000e+00 +2.2854798806e+01 2.2854798806e+01 0.0000000000e+00 0.0000e+00 1.0000e+00
        2 -1    0    0  502    0 +0.0000000000e+00 -0.0000000000e+00 -1.2963589419e+03 1.2963589419e+03 0.0000000000e+00 0.0000e+00 -1.0000e+00
  5000521  1    1    2    0    0 +8.7480856208e+01 -3.3287445618e+01 -1.1329001983e+02 1.4729420502e+02 1.0000000000e+01 0.0000e+00 1.0000e+00
 -5000521  1    1    2    0    0 -1.0496767423e+02 +6.5825270958e+01 -9.8797250370e+02 9.9576144081e+02 1.0000000000e+01 0.0000e+00 -1.0000e+00
       21  1    1    2  502  501 +1.7486818026e+01 -3.2537825340e+01 -1.7224161959e+02 1.7615809490e+02 0.0000000000e+00 0.0000e+00 -1.0000e+00
<mgrwt>
<rscale>  1 0.30626306E+03</rscale>
<asrwt>0</asrwt>
<pdfrwt beam="1">  1        2 0.19943983E+00 0.30626306E+03</pdfrwt>
<pdfrwt beam="2">  1       -2 0.35161230E-02 0.30626306E+03</pdfrwt>
<totfact> 0.58924657E+03</totfact>
</mgrwt>
</event>
<event>
 6      1 +3.0741590e+01 1.00694200e+03 7.81860800e-03 9.30096400e-02
        1 -1    0    0  502    0 +0.0000000000e+00 +0.0000000000e+00 +6.2622602512e+02 6.2622602512e+02 0.0000000000e+00 0.0000e+00 1.0000e+00
       -1 -1    0    0    0  501 -0.0000000000e+00 -0.0000000000e+00 -4.9903614305e+02 4.9903614305e+02 0.0000000000e+00 0.0000e+00 -1.0000e+00
  5000001  2    1    2    0    0 -7.5415725356e+01 +1.1315889715e+01 +3.7645555115e+01 1.0076451308e+03 1.0040497701e+03 0.0000e+00 0.0000e+00
  5000521  1    3    3    0    0 +2.4727234789e+02 +2.2206552690e+02 +3.7083990069e+02 4.9807523950e+02 1.0000000000e+01 0.0000e+00 1.0000e+00
 -5000521  1    3    3    0    0 -3.2268807324e+02 -2.1074963718e+02 -3.3319434557e+02 5.0956989129e+02 1.0000000000e+01 0.0000e+00 -1.0000e+00
       21  1    1    2  502  501 +7.5415725356e+01 -1.1315889715e+01 +8.9544326958e+01 1.1761703738e+02 0.0000000000e+00 0.0000e+00 1.0000e+00
<mgrwt>
<rscale>  1 0.10069417E+04</rscale>
<asrwt>0</asrwt>
<pdfrwt beam="1">  1        1 0.96342465E-01 0.10069417E+04</pdfrwt>
<pdfrwt beam="2">  1       -1 0.76774792E-01 0.10069417E+04</pdfrwt>
<totfact> 0.54904926E+01</totfact>
</mgrwt>
</event>
<event>
 6      1 +3.0741590e+01 1.01615300e+03 7.81860800e-03 9.29100300e-02
       21 -1    0    0  501  502 +0.0000000000e+00 +0.0000000000e+00 +4.7256435517e+02 4.7256435517e+02 0.0000000000e+00 0.0000e+00 -1.0000e+00
        1 -1    0    0  502    0 -0.0000000000e+00 -0.0000000000e+00 -8.0427518693e+02 8.0427518693e+02 0.0000000000e+00 0.0000e+00 1.0000e+00
  5000001  2    1    2    0    0 +1.6630304315e+01 +7.8768869521e+01 -4.6784642905e+02 1.1186813850e+03 1.0129593566e+03 0.0000e+00 0.0000e+00
  5000521  1    3    3    0    0 +3.9528134896e+02 +1.4862405633e+02 +9.8518650700e+01 4.3375382361e+02 1.0000000000e+01 0.0000e+00 -1.0000e+00
 -5000521  1    3    3    0    0 -3.7865104464e+02 -6.9855186813e+01 -5.6636507975e+02 6.8492756134e+02 1.0000000000e+01 0.0000e+00 1.0000e+00
        1  1    1    2  501    0 -1.6630304315e+01 -7.8768869521e+01 +1.3613559728e+02 1.5815815715e+02 0.0000000000e+00 0.0000e+00 1.0000e+00
<mgrwt>
<rscale>  1 0.10161534E+04</rscale>
<asrwt>0</asrwt>
<pdfrwt beam="1">  1       21 0.72702208E-01 0.10161534E+04</pdfrwt>
<pdfrwt beam="2">  1        1 0.12373464E+00 0.10161534E+04</pdfrwt>
<totfact> 0.35227808E+02</totfact>
</mgrwt>
</event>
<event>
 5      1 +3.0741590e+01 5.09038100e+02 7.81860800e-03 1.01144600e-01
       21 -1    0    0  501  502 +0.0000000000e+00 +0.0000000000e+00 +2.2246426132e+03 2.2246426132e+03 0.0000000000e+00 0.0000e+00 1.0000e+00
        5 -1    0    0  502    0 -0.0000000000e+00 -0.0000000000e+00 -2.6323629414e+02 2.6323629414e+02 0.0000000000e+00 0.0000e+00 1.0000e+00
  5000521  1    1    2    0    0 -7.6030679481e+01 -1.2238032203e+02 +2.1262153296e+02 2.5703214531e+02 1.0000000000e+01 0.0000e+00 -1.0000e+00
 -5000521  1    1    2    0    0 +4.9868394820e+01 +9.1908601544e+01 -2.2937283626e+02 2.5228148139e+02 1.0000000000e+01 0.0000e+00 1.0000e+00
        5  1    1    2  501    0 +2.6162284661e+01 +3.0471720489e+01 +1.9781576224e+03 1.9785652807e+03 0.0000000000e+00 0.0000e+00 1.0000e+00
<mgrwt>
<rscale>  1 0.50903808E+03</rscale>
<asrwt>0</asrwt>
<pdfrwt beam="1">  1       21 0.34225270E+00 0.50903808E+03</pdfrwt>
<pdfrwt beam="2">  1        5 0.40497893E-01 0.50903808E+03</pdfrwt>
<totfact> 0.27428480E+00</totfact>
</mgrwt>
</event>
<event>
 5      1 +3.0741590e+01 1.56805300e+02 7.81860800e-03 1.19235100e-01
       21 -1    0    0  501  502 +0.0000000000e+00 +0.0000000000e+00 +1.6082866675e+03 1.6082866675e+03 0.0000000000e+00 0.0000e+00 -1.0000e+00
       -1 -1    0    0    0  501 -0.0000000000e+00 -0.0000000000e+00 -8.6713734787e+00 8.6713734787e+00 0.0000000000e+00 0.0000e+00 1.0000e+00
  5000521  1    1    2    0    0 +4.9453776586e+01 -1.5564612356e+01 +8.2386987755e+02 8.2556011793e+02 1.0000000000e+01 0.0000e+00 -1.0000e+00
 -5000521  1    1    2    0    0 -1.1995031448e+01 -5.0685663963e+01 +1.1933346116e+02 1.3058863757e+02 1.0000000000e+01 0.0000e+00 1.0000e+00
       -1  1    1    2    0  502 -3.7458745139e+01 +6.6250276319e+01 +6.5641195534e+02 6.6080928551e+02 0.0000000000e+00 0.0000e+00 1.0000e+00
<mgrwt>
<rscale>  1 0.15680531E+03</rscale>
<asrwt>0</asrwt>
<pdfrwt beam="1">  1       21 0.24742848E+00 0.15680531E+03</pdfrwt>
<pdfrwt beam="2">  1       -1 0.13340587E-02 0.15680531E+03</pdfrwt>
<totfact> 0.75452073E+03</totfact>
</mgrwt>
</event>
<event>
 6      1 +3.0741590e+01 1.00514000e+03 7.81860800e-03 9.30292500e-02
        2 -1    0    0  502    0 +0.0000000000e+00 +0.0000000000e+00 +5.5253974115e+02 5.5253974115e+02 0.0000000000e+00 0.0000e+00 -1.0000e+00
       -2 -1    0    0    0  501 -0.0000000000e+00 -0.0000000000e+00 -5.4117464327e+02 5.4117464327e+02 0.0000000000e+00 0.0000e+00 1.0000e+00
  5000001  2    1    2    0    0 -2.2424406471e+01 +1.4190017014e+01 +9.1503167989e+01 1.0092968455e+03 1.0047900687e+03 0.0000e+00 0.0000e+00
  5000521  1    3    3    0    0 -1.9549685844e+02 +2.1637379641e+02 +4.6596504144e+02 5.4978183061e+02 1.0000000000e+01 0.0000e+00 -1.0000e+00
 -5000521  1    3    3    0    0 +1.7307245197e+02 -2.0218377939e+02 -3.7446187345e+02 4.5951501493e+02 1.0000000000e+01 0.0000e+00 1.0000e+00
       21  1    1    2  502  501 +2.2424406471e+01 -1.4190017014e+01 -8.0138070115e+01 8.4417538878e+01 0.0000000000e+00 0.0000e+00 1.0000e+00
<mgrwt>
<rscale>  1 0.10051404E+04</rscale>
<asrwt>0</asrwt>
<pdfrwt beam="1">  1        2 0.85006114E-01 0.10051404E+04</pdfrwt>
<pdfrwt beam="2">  1       -2 0.83257638E-01 0.10051404E+04</pdfrwt>
<totfact> 0.69001075E+01</totfact>
</mgrwt>
</event>
<event>
 6      1 +3.0741590e+01 1.02861000e+03 7.81860800e-03 9.27771100e-02
        2 -1    0    0  502    0 -0.0000000000e+00 +0.0000000000e+00 +1.5965428643e+03 1.5965428643e+03 0.0000000000e+00 0.0000e+00 -1.0000e+00
       21 -1    0    0  501  502 +0.0000000000e+00 -0.0000000000e+00 -2.5449773687e+02 2.5449773687e+02 0.0000000000e+00 0.0000e+00 1.0000e+00
  5000001  2    1    2    0    0 -5.9182469151e+01 +1.9706688125e+02 +1.2671166353e+03 1.6320606951e+03 1.0078192420e+03 0.0000e+00 0.0000e+00
  5000521  1    3    3    0    0 -1.6537364399e+02 -5.5847265336e+01 -1.2385819133e+02 2.1426201420e+02 1.0000000000e+01 0.0000e+00 1.0000e+00
 -5000521  1    3    3    0    0 +1.0619117484e+02 +2.5291414658e+02 +1.3909748267e+03 1.4177986809e+03 1.0000000000e+01 0.0000e+00 -1.0000e+00
        2  1    1    2  501    0 +5.9182469151e+01 -1.9706688125e+02 +7.4928492107e+01 2.1897990608e+02 0.0000000000e+00 0.0000e+00 -1.0000e+00
<mgrwt>
<rscale>  1 0.10286095E+04</rscale>
<asrwt>0</asrwt>
<pdfrwt beam="1">  1       21 0.39153499E-01 0.10286095E+04</pdfrwt>
<pdfrwt beam="2">  1        2 0.24562197E+00 0.10286095E+04</pdfrwt>
<totfact> 0.79304479E+02</totfact>
</mgrwt>
</event>
<event>
 6      1 +3.0741590e+01 1.00484600e+03 7.81860800e-03 9.30324600e-02
       -2 -1    0    0    0  501 -0.0000000000e+00 +0.0000000000e+00 +1.1617416815e+02 1.1617416815e+02 0.0000000000e+00 0.0000e+00 1.0000e+00
        2 -1    0    0  502    0 +0.0000000000e+00 -0.0000000000e+00 -2.5793553940e+03 2.5793553940e+03 0.0000000000e+00 0.0000e+00 -1.0000e+00
  5000001  2    1    2    0    0 -3.8063694310e+01 -4.4945982456e+01 -2.1050155565e+03 2.3325534847e+03 1.0031182779e+03 0.0000e+00 0.0000e+00
  5000521  1    3    3    0    0 -1.0644278317e+02 -3.7363252262e+01 -2.2065743477e+03 2.2094787690e+03 1.0000000000e+01 0.0000e+00 -1.0000e+00
 -5000521  1    3    3    0    0 +6.8379088858e+01 -7.5827301937e+00 +1.0155879113e+02 1.2307471570e+02 1.0000000000e+01 0.0000e+00 1.0000e+00
       21  1    1    2  502  501 +3.8063694310e+01 +4.4945982456e+01 -3.5816566927e+02 3.6297607746e+02 0.0000000000e+00 0.0000e+00 1.0000e+00
<mgrwt>
<rscale>  1 0.10048459E+04</rscale>
<asrwt>0</asrwt>
<pdfrwt beam="1">  1        2 0.39682390E+00 0.10048459E+04</pdfrwt>
<pdfrwt beam="2">  1       -2 0.17872949E-01 0.10048459E+04</pdfrwt>
<totfact> 0.82320127E+01</totfact>
</mgrwt>
</event>
<event>
 6      1 +3.0741590e+01 1.00238300e+03 7.81860800e-03 9.30593500e-02
        2 -1    0    0  502    0 +0.0000000000e+00 +0.0000000000e+00 +1.5522710232e+03 1.5522710232e+03 0.0000000000e+00 0.0000e+00 -1.0000e+00
       -2 -1    0    0    0  501 -0.0000000000e+00 -0.0000000000e+00 -2.4033067780e+02 2.4033067780e+02 0.0000000000e+00 0.0000e+00 1.0000e+00
  5000001  2    1    2    0    0 +1.8413538984e+02 +1.1877059295e+02 +1.0691866398e+03 1.4655823481e+03 9.7814071226e+02 0.0000e+00 0.0000e+00
  5000521  1    3    3    0    0 +8.1057659313e+00 +5.4090630422e+02 +6.4291211832e+02 8.4028645429e+02 1.0000000000e+01 0.0000e+00 -1.0000e+00
 -5000521  1    3    3    0    0 +1.7602962391e+02 -4.2213571127e+02 +4.2627452144e+02 6.2529589384e+02 1.0000000000e+01 0.0000e+00 1.0000e+00
       21  1    1    2  502  501 -1.8413538984e+02 -1.1877059295e+02 +2.4275370566e+02 3.2701935287e+02 0.0000000000e+00 0.0000e+00 -1.0000e+00
<mgrwt>
<rscale>  1 0.10023829E+04</rscale>
<asrwt>0</asrwt>
<pdfrwt beam="1">  1        2 0.23881092E+00 0.10023829E+04</pdfrwt>
<pdfrwt beam="2">  1       -2 0.36973951E-01 0.10023829E+04</pdfrwt>
<totfact> 0.81672432E+01</totfact>
</mgrwt>
</event>
<event>
 6      1 +3.0741590e+01 1.01335000e+03 7.81860800e-03 9.29402300e-02
       -2 -1    0    0    0  501 -0.0000000000e+00 +0.0000000000e+00 +1.2524930723e+02 1.2524930723e+02 0.0000000000e+00 0.0000e+00 1.0000e+00
        2 -1    0    0  502    0 +0.0000000000e+00 -0.0000000000e+00 -2.2385284183e+03 2.2385284183e+03 0.0000000000e+00 0.0000e+00 -1.0000e+00
  5000001  2    1    2    0    0 -1.9330889110e+01 +1.0188891949e+01 -2.1112296097e+03 2.3418301232e+03 1.0131141912e+03 0.0000e+00 0.0000e+00
  5000521  1    3    3    0    0 +3.8867595042e+02 -1.9367556972e+02 -4.7711350342e+02 6.4522594173e+02 1.0000000000e+01 0.0000e+00 1.0000e+00
 -5000521  1    3    3    0    0 -4.0800683953e+02 +2.0386446167e+02 -1.6341161062e+03 1.6966041814e+03 1.0000000000e+01 0.0000e+00 -1.0000e+00
       21  1    1    2  502  501 +1.9330889110e+01 -1.0188891949e+01 -2.0495014102e+00 2.1947602351e+01 0.0000000000e+00 0.0000e+00 -1.0000e+00
<mgrwt>
<rscale>  1 0.10133498E+04</rscale>
<asrwt>0</asrwt>
<pdfrwt beam="1">  1        2 0.34438899E+00 0.10133498E+04</pdfrwt>
<pdfrwt beam="2">  1       -2 0.19269124E-01 0.10133498E+04</pdfrwt>
<totfact> 0.11258359E+02</totfact>
</mgrwt>
</event>
<event>
 6      1 +3.0741590e+01 9.99421200e+02 7.81860800e-03 9.30918000e-02
        2 -1    0    0  502    0 +0.0000000000e+00 +0.0000000000e+00 +2.8070573589e+02 2.8070573589e+02 0.0000000000e+00 0.0000e+00 1.0000e+00
       -2 -1    0    0    0  501 -0.0000000000e+00 -0.0000000000e+00 -1.0386571336e+03 1.0386571336e+03 0.0000000000e+00 0.0000e+00 -1.0000e+00
  5000001  2    1    2    0    0 -1.1904715052e+01 +2.2363967181e+01 -7.9321351735e+02 1.2759429851e+03 9.9910006904e+02 0.0000e+00 0.0000e+00
  5000521  1    3    3    0    0 -2.3801011491e+02 +3.8493422235e+02 -1.0323264857e+02 4.6430609523e+02 1.0000000000e+01 0.0000e+00 1.0000e+00
 -5000521  1    3    3    0    0 +2.2610539986e+02 -3.6257025517e+02 -6.8998086878e+02 8.1163688991e+02 1.0000000000e+01 0.0000e+00 -1.0000e+00
       21  1    1    2  502  501 +1.1904715052e+01 -2.2363967181e+01 +3.5262119685e+01 4.3419884307e+01 0.0000000000e+00 0.0000e+00 1.0000e+00
<mgrwt>
<rscale>  1 0.99942124E+03</rscale>
<asrwt>0</asrwt>
<pdfrwt beam="1">  1        2 0.43185498E-01 0.99942124E+03</pdfrwt>
<pdfrwt beam="2">  1       -2 0.15979341E+00 0.99942124E+03</pdfrwt>
<totfact> 0.29801965E+01</totfact>
</mgrwt>
</event>
<event>
 6      1 +3.0741590e+01 1.08017100e+03 7.81860800e-03 9.22473700e-02
        2 -1    0    0  502    0 +0.0000000000e+00 +0.0000000000e+00 +3.0160183173e+03 3.0160183173e+03 0.0000000000e+00 0.0000e+00 -1.0000e+00
       -2 -1    0    0    0  501 -0.0000000000e+00 -0.0000000000e+00 -1.1397893738e+02 1.1397893738e+02 0.0000000000e+00 0.0000e+00 1.0000e+00
  5000001  2    1    2    0    0 +1.5099298065e-01 +5.0197665802e+01 +2.4805739443e+03 2.7055529805e+03 1.0790041746e+03 0.0000e+00 0.0000e+00
  5000521  1    3    3    0    0 -4.0264492166e+02 -4.5705428328e+01 +3.5138423612e+02 5.3645391275e+02 1.0000000000e+01 0.0000e+00 -1.0000e+00
 -5000521  1    3    3    0    0 +4.0279591464e+02 +9.5903094130e+01 +2.1291897082e+03 2.1690990678e+03 1.0000000000e+01 0.0000e+00 1.0000e+00
       21  1    1    2  502  501 -1.5099298065e-01 -5.0197665802e+01 +4.2146543562e+02 4.2444427417e+02 0.0000000000e+00 0.0000e+00 -1.0000e+00
<mgrwt>
<rscale>  1 0.10801712E+04</rscale>
<asrwt>0</asrwt>
<pdfrwt beam="1">  1        2 0.46400276E+00 0.10801712E+04</pdfrwt>
<pdfrwt beam="2">  1       -2 0.17535223E-01 0.10801712E+04</pdfrwt>
<totfact> 0.46337932E+01</totfact>
</mgrwt>
</event>
<event>
 6      1 +3.0741590e+01 1.01446700e+03 7.81860800e-03 9.29281900e-02
        1 -1    0    0  502    0 +0.0000000000e+00 +0.0000000000e+00 +2.8487709759e+03 2.8487709759e+03 0.0000000000e+00 0.0000e+00 1.0000e+00
       -1 -1    0    0    0  501 -0.0000000000e+00 -0.0000000000e+00 -1.2713199239e+02 1.2713199239e+02 0.0000000000e+00 0.0000e+00 -1.0000e+00
  5000001  2    1    2    0    0 +9.7181325432e+01 +2.4131245862e+01 +2.6833280368e+03 2.8686917017e+03 1.0095128526e+03 0.0000e+00 0.0000e+00
  5000521  1    3    3    0    0 +5.1153117684e+02 +1.9911944657e+02 +1.2216792245e+03 1.3393703097e+03 1.0000000000e+01 0.0000e+00 -1.0000e+00
 -5000521  1    3    3    0    0 -4.1434985141e+02 -1.7498820071e+02 +1.4616488123e+03 1.5293213921e+03 1.0000000000e+01 0.0000e+00 1.0000e+00
       21  1    1    2  502  501 -9.7181325432e+01 -2.4131245862e+01 +3.8310946726e+01 1.0721126657e+02 0.0000000000e+00 0.0000e+00 1.0000e+00
<mgrwt>
<rscale>  1 0.10144667E+04</rscale>
<asrwt>0</asrwt>
<pdfrwt beam="1">  1        1 0.43827241E+00 0.10144667E+04</pdfrwt>
<pdfrwt beam="2">  1       -1 0.19558770E-01 0.10144667E+04</pdfrwt>
<totfact> 0.16647959E+01</totfact>
</mgrwt>
</event>
<event>
 6      1 +3.0741590e+01 9.70777800e+02 7.81860800e-03 9.34118900e-02
       21 -1    0    0  501  502 +0.0000000000e+00 +0.0000000000e+00 +8.4173465037e+01 8.4173465037e+01 0.0000000000e+00 0.0000e+00 1.0000e+00
        2 -1    0    0  502    0 -0.0000000000e+00 -0.0000000000e+00 -3.6762790192e+03 3.6762790192e+03 0.0000000000e+00 0.0000e+00 -1.0000e+00
  5000001  2    1    2    0    0 -2.0765314111e+01 +2.2395612226e+01 -3.6002574784e+03 3.7288421128e+03 9.7029728941e+02 0.0000e+00 0.0000e+00
  5000521  1    3    3    0    0 -3.9727184186e+02 -2.8071160776e+02 -1.8804491152e+03 1.9423729812e+03 1.0000000000e+01 0.0000e+00 -1.0000e+00
 -5000521  1    3    3    0    0 +3.7650652775e+02 +3.0310721999e+02 -1.7198083631e+03 1.7864691316e+03 1.0000000000e+01 0.0000e+00 1.0000e+00
        2  1    1    2  501    0 +2.0765314111e+01 -2.2395612226e+01 +8.1519241780e+00 3.1610371477e+01 0.0000000000e+00 0.0000e+00 -1.0000e+00
<mgrwt>
<rscale>  1 0.97077783E+03</rscale>
<asrwt>0</asrwt>
<pdfrwt beam="1">  1       21 0.12949765E-01 0.97077783E+03</pdfrwt>
<pdfrwt beam="2">  1        2 0.56558133E+00 0.97077783E+03</pdfrwt>
<totfact> 0.39646473E+02</totfact>
</mgrwt>
</event>
<event>
 6      1 +3.0741590e+01 1.00806800e+03 7.81860800e-03 9.29974100e-02
        2 -1    0    0  502    0 +0.0000000000e+00 +0.0000000000e+00 +2.9286693653e+03 2.9286693653e+03 0.0000000000e+00 0.0000e+00 -1.0000e+00
       -2 -1    0    0    0  501 -0.0000000000e+00 -0.0000000000e+00 -1.0751519025e+02 1.0751519025e+02 0.0000000000e+00 0.0000e+00 1.0000e+00
  5000001  2    1    2    0    0 -1.3710214402e+01 +1.0248035078e+02 +2.6611169421e+03 2.8456534342e+03 1.0027511635e+03 0.0000e+00 0.0000e+00
  5000521  1    3    3    0    0 +3.3647861998e+02 -3.1639998878e+02 +1.2274659263e+03 1.3115256059e+03 1.0000000000e+01 0.0000e+00 1.0000e+00
 -5000521  1    3    3    0    0 -3.5018883439e+02 +4.1888033956e+02 +1.4336510158e+03 1.5341278283e+03 1.0000000000e+01 0.0000e+00 -1.0000e+00
       21  1    1    2  502  501 +1.3710214402e+01 -1.0248035078e+02 +1.6003723298e+02 1.9053112138e+02 0.0000000000e+00 0.0000e+00 1.0000e+00
<mgrwt>
<rscale>  1 0.10080675E+04</rscale>
<asrwt>0</asrwt>
<pdfrwt beam="1">  1        2 0.45056446E+00 0.10080675E+04</pdfrwt>
<pdfrwt beam="2">  1       -2 0.16540801E-01 0.10080675E+04</pdfrwt>
<totfact> 0.58413475E+01</totfact>
</mgrwt>
</event>
<event>
 6      1 +3.0741590e+01 1.02044500e+03 7.81860800e-03 9.28640100e-02
        1 -1    0    0  502    0 +0.0000000000e+00 +0.0000000000e+00 +1.0290162015e+03 1.0290162015e+03 0.0000000000e+00 0.0000e+00 -1.0000e+00
       -1 -1    0    0    0  501 -0.0000000000e+00 -0.0000000000e+00 -4.2902898544e+02 4.2902898544e+02 0.0000000000e+00 0.0000e+00 1.0000e+00
  5000001  2    1    2    0    0 -1.6838338010e+01 -1.2525647221e+02 +2.0170174167e+02 1.0401887133e+03 1.0125888866e+03 0.0000e+00 0.0000e+00
  5000521  1    3    3    0    0 -5.8593916107e+00 -5.6857656888e+02 +1.7835144503e+02 5.9600577606e+02 1.0000000000e+01 0.0000e+00 -1.0000e+00
 -5000521  1    3    3    0    0 -1.0978946399e+01 +4.4332009667e+02 +2.3350296633e+01 4.4418293723e+02 1.0000000000e+01 0.0000e+00 1.0000e+00
       21  1    1    2  502  501 +1.6838338010e+01 +1.2525647221e+02 +3.9828547445e+02 4.1785647370e+02 0.0000000000e+00 0.0000e+00 1.0000e+00
<mgrwt>
<rscale>  1 0.10204455E+04</rscale>
<asrwt>0</asrwt>
<pdfrwt beam="1">  1        1 0.15831018E+00 0.10204455E+04</pdfrwt>
<pdfrwt beam="2">  1       -1 0.66004459E-01 0.10204455E+04</pdfrwt>
<totfact> 0.33462587E+01</totfact>
</mgrwt>
</event>
<event>
 6      1 +3.0741590e+01 1.00190900e+03 7.81860800e-03 9.30645300e-02
       21 -1    0    0  501  502 +0.0000000000e+00 +0.0000000000e+00 +9.2834025925e+02 9.2834025925e+02 0.0000000000e+00 0.0000e+00 1.0000e+00
        1 -1    0    0  502    0 -0.0000000000e+00 -0.0000000000e+00 -3.8521235145e+02 3.8521235145e+02 0.0000000000e+00 0.0000e+00 -1.0000e+00
  5000001  2    1    2    0    0 +4.3852617237e+01 +6.4044916611e+01 +2.8157332000e+02 1.0407237160e+03 9.9889815053e+02 0.0000e+00 0.0000e+00
  5000521  1    3    3    0    0 -8.7293140339e+01 +4.4270348415e+02 -1.2647364274e+02 4.6872385211e+02 1.0000000000e+01 0.0000e+00 1.0000e+00
 -5000521  1    3    3    0    0 +1.3114575758e+02 -3.7865856754e+02 +4.0804696274e+02 5.7199986390e+02 1.0000000000e+01 0.0000e+00 -1.0000e+00
        1  1    1    2  501    0 -4.3852617237e+01 -6.4044916611e+01 +2.6155458780e+02 2.7282889470e+02 0.0000000000e+00 0.0000e+00 -1.0000e+00
<mgrwt>
<rscale>  1 0.10019093E+04</rscale>
<asrwt>0</asrwt>
<pdfrwt beam="1">  1       21 0.14282158E+00 0.10019093E+04</pdfrwt>
<pdfrwt beam="2">  1        1 0.59263439E-01 0.10019093E+04</pdfrwt>
<totfact> 0.18807144E+02</totfact>
</mgrwt>
</event>
<event>
 6      1 +3.0741590e+01 1.00250900e+03 7.81860800e-03 9.30579700e-02
       -2 -1    0    0    0  501 -0.0000000000e+00 +0.0000000000e+00 +3.1888584443e+02 3.1888584443e+02 0.0000000000e+00 0.0000e+00 1.0000e+00
        2 -1    0    0  502    0 +0.0000000000e+00 -0.0000000000e+00 -1.0658789893e+03 1.0658789893e+03 0.0000000000e+00 0.0000e+00 -1.0000e+00
  5000001  2    1    2    0    0 +6.1478277075e+01 -8.5452860951e+01 -7.8453989083e+02 1.2729993286e+03 9.9696673981e+02 0.0000e+00 0.0000e+00
  5000521  1    3    3    0    0 -1.4756090005e+02 +4.2490964802e+02 -3.2437054656e+02 5.5465185449e+02 1.0000000000e+01 0.0000e+00 1.0000e+00
 -5000521  1    3    3    0    0 +2.0903917713e+02 -5.1036250897e+02 -4.6016934427e+02 7.1834747410e+02 1.0000000000e+01 0.0000e+00 -1.0000e+00
       21  1    1    2  502  501 -6.1478277075e+01 +8.5452860951e+01 +3.7546745999e+01 1.1176550511e+02 0.0000000000e+00 0.0000e+00 1.0000e+00
<mgrwt>
<rscale>  1 0.10025091E+04</rscale>
<asrwt>0</asrwt>
<pdfrwt beam="1">  1        2 0.16398138E+00 0.10025091E+04</pdfrwt>
<pdfrwt beam="2">  1       -2 0.49059361E-01 0.10025091E+04</pdfrwt>
<totfact> 0.89755712E+01</totfact>
</mgrwt>
</event>
<event>
 6      1 +3.0741590e+01 1.00105500e+03 7.81860800e-03 9.30738900e-02
       -1 -1    0    0    0  501 -0.0000000000e+00 +0.0000000000e+00 +1.5362530351e+03 1.5362530351e+03 0.0000000000e+00 0.0000e+00 1.0000e+00
        1 -1    0    0  502    0 +0.0000000000e+00 -0.0000000000e+00 -1.7992414007e+02 1.7992414007e+02 0.0000000000e+00 0.0000e+00 -1.0000e+00
  5000001  2    1    2    0    0 -3.8736932918e+01 -2.2052816093e+01 +1.2540205524e+03 1.6045802503e+03 1.0000616767e+03 0.0000e+00 0.0000e+00
  5000521  1    3    3    0    0 -1.6758193678e+02 -3.5607663069e+02 +1.1432198358e+02 4.0993144352e+02 1.0000000000e+01 0.0000e+00 -1.0000e+00
 -5000521  1    3    3    0    0 +1.2884500387e+02 +3.3402381459e+02 +1.1396985688e+03 1.1946488068e+03 1.0000000000e+01 0.0000e+00 1.0000e+00
       21  1    1    2  502  501 +3.8736932918e+01 +2.2052816093e+01 +1.0230834259e+02 1.1159692483e+02 0.0000000000e+00 0.0000e+00 -1.0000e+00
<mgrwt>
<rscale>  1 0.10010546E+04</rscale>
<asrwt>0</asrwt>
<pdfrwt beam="1">  1        1 0.27680638E-01 0.10010546E+04</pdfrwt>
<pdfrwt beam="2">  1       -1 0.23634661E+00 0.10010546E+04</pdfrwt>
<totfact> 0.14746951E+01</totfact>
</mgrwt>
</event>
<event>
 6      1 +3.0741590e+01 1.00284200e+03 7.81860800e-03 9.30543400e-02
        2 -1    0    0  502    0 +0.0000000000e+00 +0.0000000000e+00 +1.2903268091e+03 1.2903268091e+03 0.0000000000e+00 0.0000e+00 -1.0000e+00
       -2 -1    0    0    0  501 -0.0000000000e+00 -0.0000000000e+00 -2.3825537171e+02 2.3825537171e+02 0.0000000000e+00 0.0000e+00 1.0000e+00
  5000001  2    1    2    0    0 -3.2724279355e+01 -9.6178100881e+00 +1.0875664909e+03 1.4793553634e+03 1.0022614620e+03 0.0000e+00 0.0000e+00
  5000521  1    3    3    0    0 +2.0555025338e+02 +1.5221478831e+02 +1.1552811326e+03 1.1832982480e+03 1.0000000000e+01 0.0000e+00 -1.0000e+00
 -5000521  1    3    3    0    0 -2.3827453273e+02 -1.6183259840e+02 -6.7714641644e+01 2.9605711535e+02 1.0000000000e+01 0.0000e+00 1.0000e+00
       21  1    1    2  502  501 +3.2724279355e+01 +9.6178100881e+00 -3.5495053553e+01 4.9226817456e+01 0.0000000000e+00 0.0000e+00 -1.0000e+00
<mgrwt>
<rscale>  1 0.10028417E+04</rscale>
<asrwt>0</asrwt>
<pdfrwt beam="1">  1        2 0.19851181E+00 0.10028417E+04</pdfrwt>
<pdfrwt beam="2">  1       -2 0.36654673E-01 0.10028417E+04</pdfrwt>
<totfact> 0.11709786E+02</totfact>
</mgrwt>
</event>
<event>
 6      1 +3.0741590e+01 9.94564700e+02 7.81860800e-03 9.31452600e-02
        1 -1    0    0  502    0 +0.0000000000e+00 +0.0000000000e+00 +8.3571635986e+02 8.3571635986e+02 0.0000000000e+00 0.0000e+00 -1.0000e+00
       -1 -1    0    0    0  501 -0.0000000000e+00 -0.0000000000e+00 -6.9638718625e+02 6.9638718625e+02 0.0000000000e+00 0.0000e+00 1.0000e+00
  5000001  2    1    2    0    0 -2.6300389292e+01 +3.2750580151e+01 -3.3989568487e+02 1.0510414129e+03 9.9367734408e+02 0.0000e+00 0.0000e+00
  5000521  1    3    3    0    0 -3.6425462925e+02 +3.1364628287e+02 +2.2557818350e+01 4.8131515752e+02 1.0000000000e+01 0.0000e+00 -1.0000e+00
 -5000521  1    3    3    0    0 +3.3795423996e+02 -2.8089570272e+02 -3.6245350322e+02 5.6972625542e+02 1.0000000000e+01 0.0000e+00 1.0000e+00
       21  1    1    2  502  501 +2.6300389292e+01 -3.2750580151e+01 +4.7922485848e+02 4.8106213317e+02 0.0000000000e+00 0.0000e+00 -1.0000e+00
<mgrwt>
<rscale>  1 0.99456472E+03</rscale>
<asrwt>0</asrwt>
<pdfrwt beam="1">  1        1 0.12857175E+00 0.99456472E+03</pdfrwt>
<pdfrwt beam="2">  1       -1 0.10713649E+00 0.99456472E+03</pdfrwt>
<totfact> 0.16774110E+01</totfact>
</mgrwt>
</event>
<event>
 6      1 +3.0741590e+01 1.00656700e+03 7.81860800e-03 9.30137200e-02
        2 -1    0    0  502    0 +0.0000000000e+00 +0.0000000000e+00 +9.2688897662e+02 9.2688897662e+02 0.0000000000e+00 0.0000e+00 1.0000e+00
       -2 -1    0    0    0  501 -0.0000000000e+00 -0.0000000000e+00 -4.0098173606e+02 4.0098173606e+02 0.0000000000e+00 0.0000e+00 -1.0000e+00
  5000001  2    1    2    0    0 +6.1145171529e+01 +5.9263597420e+01 +6.3451007189e+02 1.1898653470e+03 1.0029584272e+03 0.0000e+00 0.0000e+00
  5000521  1    3    3    0    0 -2.7346258784e+00 -2.4595980804e+02 -1.8826924764e+02 3.0991775515e+02 1.0000000000e+01 0.0000e+00 -1.0000e+00
 -5000521  1    3    3    0    0 +6.3879797408e+01 +3.0522340546e+02 +8.2277931953e+02 8.7994759185e+02 1.0000000000e+01 0.0000e+00 1.0000e+00
       21  1    1    2  502  501 -6.1145171529e+01 -5.9263597420e+01 -1.0860283134e+02 1.3800536568e+02 0.0000000000e+00 0.0000e+00 1.0000e+00
<mgrwt>
<rscale>  1 0.10065667E+04</rscale>
<asrwt>0</asrwt>
<pdfrwt beam="1">  1        2 0.14259830E+00 0.10065667E+04</pdfrwt>
<pdfrwt beam="2">  1       -2 0.61689498E-01 0.10065667E+04</pdfrwt>
<totfact> 0.68456111E+01</totfact>
</mgrwt>
</event>
<event>
 6      1 +3.0741590e+01 1.02736900e+03 7.81860800e-03 9.27902600e-02
       -1 -1    0    0    0  501 -0.0000000000e+00 +0.0000000000e+00 +6.8172043195e+02 6.8172043195e+02 0.0000000000e+00 0.0000e+00 1.0000e+00
        1 -1    0    0  502    0 +0.0000000000e+00 -0.0000000000e+00 -5.4272252991e+02 5.4272252991e+02 0.0000000000e+00 0.0000e+00 -1.0000e+00
  5000001  2    1    2    0    0 -2.2095924710e+01 +1.8212954469e+02 +1.6009740619e+02 1.0397686810e+03 1.0108552466e+03 0.0000e+00 0.0000e+00
  5000521  1    3    3    0    0 +2.6499459992e+02 +2.9692258162e+02 +4.6038748794e+02 6.0863929919e+02 1.0000000000e+01 0.0000e+00 1.0000e+00
 -5000521  1    3    3    0    0 -2.8709052463e+02 -1.1479303693e+02 -3.0029008175e+02 4.3112938181e+02 1.0000000000e+01 0.0000e+00 -1.0000e+00
       21  1    1    2  502  501 +2.2095924710e+01 -1.8212954469e+02 -2.1099504147e+01 1.8467428087e+02 0.0000000000e+00 0.0000e+00 -1.0000e+00
<mgrwt>
<rscale>  1 0.10273693E+04</rscale>
<asrwt>0</asrwt>
<pdfrwt beam="1">  1        1 0.83495774E-01 0.10273693E+04</pdfrwt>
<pdfrwt beam="2">  1       -1 0.10488007E+00 0.10273693E+04</pdfrwt>
<totfact> 0.33772096E+01</totfact>
</mgrwt>
</event>
<event>
 6      1 +3.0741590e+01 9.96141500e+02 7.81860800e-03 9.31278700e-02
       21 -1    0    0  501  502 +0.0000000000e+00 +0.0000000000e+00 +9.6622755575e+02 9.6622755575e+02 0.0000000000e+00 0.0000e+00 1.0000e+00
       -4 -1    0    0    0  501 -0.0000000000e+00 -0.0000000000e+00 -3.1184738099e+02 3.1184738099e+02 0.0000000000e+00 0.0000e+00 -1.0000e+00
  5000001  2    1    2    0    0 +6.0396833672e+01 -2.7257366614e+01 +5.0975858227e+02 1.1189958791e+03 9.9393522111e+02 0.0000e+00 0.0000e+00
  5000521  1    3    3    0    0 -2.9585713402e+02 +2.4689415449e+02 +5.4548536215e+02 6.6793895499e+02 1.0000000000e+01 0.0000e+00 -1.0000e+00
 -5000521  1    3    3    0    0 +3.5625396769e+02 -2.7415152110e+02 -3.5726779884e+01 4.5105692414e+02 1.0000000000e+01 0.0000e+00 1.0000e+00
       -4  1    1    2    0  502 -6.0396833672e+01 +2.7257366614e+01 +1.4462159249e+02 1.5907905760e+02 0.0000000000e+00 0.0000e+00 -1.0000e+00
<mgrwt>
<rscale>  1 0.99614154E+03</rscale>
<asrwt>0</asrwt>
<pdfrwt beam="1">  1       21 0.14865039E+00 0.99614154E+03</pdfrwt>
<pdfrwt beam="2">  1       -4 0.47976520E-01 0.99614154E+03</pdfrwt>
<totfact> 0.46774079E+01</totfact>
</mgrwt>
</event>
<event>
 6      1 +3.0741590e+01 1.00385000e+03 7.81860800e-03 9.30433300e-02
        2 -1    0    0  502    0 -0.0000000000e+00 +0.0000000000e+00 +6.1581455906e+02 6.1581455906e+02 0.0000000000e+00 0.0000e+00 1.0000e+00
       21 -1    0    0  501  502 +0.0000000000e+00 -0.0000000000e+00 -6.0201549382e+02 6.0201549382e+02 0.0000000000e+00 0.0000e+00 -1.0000e+00
  5000001  2    1    2    0    0 +4.2297764097e+01 -1.3881119323e+01 +2.0239641177e+02 1.0240499057e+03 1.0028619624e+03 0.0000e+00 0.0000e+00
  5000521  1    3    3    0    0 -1.5034407538e+02 +1.2203930733e+02 -3.6291358256e+02 4.1146470316e+02 1.0000000000e+01 0.0000e+00 -1.0000e+00
 -5000521  1    3    3    0    0 +1.9264183948e+02 -1.3592042665e+02 +5.6530999433e+02 6.1258520256e+02 1.0000000000e+01 0.0000e+00 1.0000e+00
        2  1    1    2  501    0 -4.2297764097e+01 +1.3881119323e+01 -1.8859734652e+02 1.9378014717e+02 0.0000000000e+00 0.0000e+00 1.0000e+00
<mgrwt>
<rscale>  1 0.10038495E+04</rscale>
<asrwt>0</asrwt>
<pdfrwt beam="1">  1       21 0.92617768E-01 0.10038495E+04</pdfrwt>
<pdfrwt beam="2">  1        2 0.94740702E-01 0.10038495E+04</pdfrwt>
<totfact> 0.49621885E+02</totfact>
</mgrwt>
</event>
<event>
 6      1 +3.0741590e+01 9.84872300e+02 7.81860800e-03 9.32529400e-02
        1 -1    0    0  502    0 +0.0000000000e+00 +0.0000000000e+00 +9.1721773820e+02 9.1721773820e+02 0.0000000000e+00 0.0000e+00 1.0000e+00
       -1 -1    0    0    0  501 -0.0000000000e+00 -0.0000000000e+00 -2.9702230099e+02 2.9702230099e+02 0.0000000000e+00 0.0000e+00 -1.0000e+00
  5000001  2    1    2    0    0 +2.7174358270e+01 +1.2077071872e+01 +5.2823118594e+02 1.1175874400e+03 9.8442328239e+02 0.0000e+00 0.0000e+00
  5000521  1    3    3    0    0 +2.3683706655e+02 +4.5170109984e+01 +7.6340255091e+02 8.0063449193e+02 1.0000000000e+01 0.0000e+00 1.0000e+00
 -5000521  1    3    3    0    0 -2.0966270828e+02 -3.3093038112e+01 -2.3517136497e+02 3.1695294811e+02 1.0000000000e+01 0.0000e+00 -1.0000e+00
       21  1    1    2  502  501 -2.7174358270e+01 -1.2077071872e+01 +9.1964251264e+01 9.6652599153e+01 0.0000000000e+00 0.0000e+00 1.0000e+00
<mgrwt>
<rscale>  1 0.98487233E+03</rscale>
<asrwt>0</asrwt>
<pdfrwt beam="1">  1        1 0.14111042E+00 0.98487233E+03</pdfrwt>
<pdfrwt beam="2">  1       -1 0.45695739E-01 0.98487233E+03</pdfrwt>
<totfact> 0.84083564E+01</totfact>
</mgrwt>
</event>
<event>
 6      1 +3.0741590e+01 1.00001000e+03 7.81860800e-03 9.30853400e-02
        2 -1    0    0  502    0 +0.0000000000e+00 +0.0000000000e+00 +1.1588504306e+03 1.1588504306e+03 0.0000000000e+00 0.0000e+00 1.0000e+00
       -2 -1    0    0    0  501 -0.0000000000e+00 -0.0000000000e+00 -2.4791213474e+02 2.4791213474e+02 0.0000000000e+00 0.0000e+00 -1.0000e+00
  5000001  2    1    2    0    0 +3.1319804036e+01 -5.7411757259e+01 +8.8825544457e+02 1.3375415300e+03 9.9786901425e+02 0.0000e+00 0.0000e+00
  5000521  1    3    3    0    0 +1.3575937428e+02 -4.3530223750e+02 +8.2163954050e+02 9.3973942143e+02 1.0000000000e+01 0.0000e+00 1.0000e+00
 -5000521  1    3    3    0    0 -1.0443957025e+02 +3.7789048024e+02 +6.6615904070e+01 3.9780210854e+02 1.0000000000e+01 0.0000e+00 -1.0000e+00
       21  1    1    2  502  501 -3.1319804036e+01 +5.7411757259e+01 +2.2682851320e+01 6.9221035390e+01 0.0000000000e+00 0.0000e+00 1.0000e+00
<mgrwt>
<rscale>  1 0.10000098E+04</rscale>
<asrwt>0</asrwt>
<pdfrwt beam="1">  1        2 0.17828468E+00 0.10000098E+04</pdfrwt>
<pdfrwt beam="2">  1       -2 0.38140329E-01 0.10000098E+04</pdfrwt>
<totfact> 0.12980820E+02</totfact>
</mgrwt>
</event>
<event>
 6      1 +3.0741590e+01 1.00724600e+03 7.81860800e-03 9.30063300e-02
       -2 -1    0    0    0  501 -0.0000000000e+00 +0.0000000000e+00 +8.3599423825e+02 8.3599423825e+02 0.0000000000e+00 0.0000e+00 -1.0000e+00
        2 -1    0    0  502    0 +0.0000000000e+00 -0.0000000000e+00 -7.1734770764e+02 7.1734770764e+02 0.0000000000e+00 0.0000e+00 1.0000e+00
  5000001  2    1    2    0    0 -2.9865709820e+01 +2.1121429528e+01 -3.6273639430e+02 1.0705711972e+03 1.0065818005e+03 0.0000e+00 0.0000e+00
  5000521  1    3    3    0    0 +2.7557184969e+00 +2.4202600459e+02 +2.9160720137e+02 3.7910281030e+02 1.0000000000e+01 0.0000e+00 -1.0000e+00
 -5000521  1    3    3    0    0 -3.2621428317e+01 -2.2090457506e+02 -6.5434359568e+02 6.9146838689e+02 1.0000000000e+01 0.0000e+00 1.0000e+00
       21  1    1    2  502  501 +2.9865709820e+01 -2.1121429528e+01 +4.8138292491e+02 4.8277074870e+02 0.0000000000e+00 0.0000e+00 -1.0000e+00
<mgrwt>
<rscale>  1 0.10072462E+04</rscale>
<asrwt>0</asrwt>
<pdfrwt beam="1">  1        2 0.11036119E+00 0.10072462E+04</pdfrwt>
<pdfrwt beam="2">  1       -2 0.12861450E+00 0.10072462E+04</pdfrwt>
<totfact> 0.17594565E+01</totfact>
</mgrwt>
</event>
<event>
 6      1 +3.0741590e+01 9.68153800e+02 7.81860800e-03 9.34418000e-02
        1 -1    0    0  502    0 +0.0000000000e+00 +0.0000000000e+00 +4.3316559268e+02 4.3316559268e+02 0.0000000000e+00 0.0000e+00 1.0000e+00
       -1 -1    0    0    0  501 -0.0000000000e+00 -0.0000000000e+00 -6.0666302549e+02 6.0666302549e+02 0.0000000000e+00 0.0000e+00 -1.0000e+00
  5000001  2    1    2    0    0 -2.5768856778e+01 -3.1982560679e+01 -2.0306535193e+02 9.8922051597e+02 9.6728215836e+02 0.0000e+00 0.0000e+00
  5000521  1    3    3    0    0 +2.6991637988e+02 +3.6821102480e+02 -1.4096487662e+01 4.5687298221e+02 1.0000000000e+01 0.0000e+00 -1.0000e+00
 -5000521  1    3    3    0    0 -2.9568523666e+02 -4.0019358548e+02 -1.8896886427e+02 5.3234753376e+02 1.0000000000e+01 0.0000e+00 1.0000e+00
       21  1    1    2  502  501 +2.5768856778e+01 +3.1982560679e+01 +2.9567919125e+01 5.0608102204e+01 0.0000000000e+00 0.0000e+00 1.0000e+00
<mgrwt>
<rscale>  1 0.96815375E+03</rscale>
<asrwt>0</asrwt>
<pdfrwt beam="1">  1        1 0.66640860E-01 0.96815375E+03</pdfrwt>
<pdfrwt beam="2">  1       -1 0.93332773E-01 0.96815375E+03</pdfrwt>
<totfact> 0.60373585E+01</totfact>
</mgrwt>
</event>
<event>
 6      1 +3.0741590e+01 1.00771400e+03 7.81860800e-03 9.30012400e-02
        1 -1    0    0  502    0 +0.0000000000e+00 +0.0000000000e+00 +1.2671640822e+03 1.2671640822e+03 0.0000000000e+00 0.0000e+00 -1.0000e+00
       -1 -1    0    0    0  501 -0.0000000000e+00 -0.0000000000e+00 -3.3695898401e+02 3.3695898401e+02 0.0000000000e+00 0.0000e+00 1.0000e+00
  5000001  2    1    2    0    0 +4.1240498879e+01 +7.4952079077e+01 +4.2826090234e+02 1.0949408114e+03 1.0040763850e+03 0.0000e+00 0.0000e+00
  5000521  1    3    3    0    0 -3.2877297324e+01 +2.7795213328e+02 -2.5468208175e+02 3.7855153921e+02 1.0000000000e+01 0.0000e+00 1.0000e+00
 -5000521  1    3    3    0    0 +7.4117796203e+01 -2.0300005420e+02 +6.8294298409e+02 7.1638927214e+02 1.0000000000e+01 0.0000e+00 -1.0000e+00
       21  1    1    2  502  501 -4.1240498879e+01 -7.4952079077e+01 +5.0194419585e+02 5.0918225485e+02 0.0000000000e+00 0.0000e+00 -1.0000e+00
<mgrwt>
<rscale>  1 0.10077142E+04</rscale>
<asrwt>0</asrwt>
<pdfrwt beam="1">  1        1 0.19494832E+00 0.10077142E+04</pdfrwt>
<pdfrwt beam="2">  1       -1 0.51839844E-01 0.10077142E+04</pdfrwt>
<totfact> 0.35885878E+01</totfact>
</mgrwt>
</event>
<event>
 6      1 +3.0741590e+01 9.97542900e+02 7.81860800e-03 9.31124400e-02
       -1 -1    0    0    0  501 -0.0000000000e+00 +0.0000000000e+00 +1.1800904520e+02 1.1800904520e+02 0.0000000000e+00 0.0000e+00 1.0000e+00
        1 -1    0    0  502    0 +0.0000000000e+00 -0.0000000000e+00 -2.3969291366e+03 2.3969291366e+03 0.0000000000e+00 0.0000e+00 -1.0000e+00
  5000001  2    1    2    0    0 -4.3660480379e+01 +1.4315789370e+01 -2.2484636312e+03 2.4598130937e+03 9.9648410713e+02 0.0000e+00 0.0000e+00
  5000521  1    3    3    0    0 -3.8289978040e+02 +1.6513931126e+02 -1.9175279585e+03 1.9623701755e+03 1.0000000000e+01 0.0000e+00 -1.0000e+00
 -5000521  1    3    3    0    0 +3.3923930002e+02 -1.5082352189e+02 -3.3093567270e+02 4.9744291824e+02 1.0000000000e+01 0.0000e+00 1.0000e+00
       21  1    1    2  502  501 +4.3660480379e+01 -1.4315789370e+01 -3.0456460247e+01 5.5125088145e+01 0.0000000000e+00 0.0000e+00 1.0000e+00
<mgrwt>
<rscale>  1 0.99754286E+03</rscale>
<asrwt>0</asrwt>
<pdfrwt beam="1">  1        1 0.36875830E+00 0.99754286E+03</pdfrwt>
<pdfrwt beam="2">  1       -1 0.18155239E-01 0.99754286E+03</pdfrwt>
<totfact> 0.38892138E+01</totfact>
</mgrwt>
</event>
<event>
 6      1 +3.0741590e+01 9.84443600e+02 7.81860800e-03 9.32577300e-02
       21 -1    0    0  501  502 +0.0000000000e+00 +0.0000000000e+00 +1.2441818711e+02 1.2441818711e+02 0.0000000000e+00 0.0000e+00 1.0000e+00
        2 -1    0    0  502    0 -0.0000000000e+00 -0.0000000000e+00 -3.6257471383e+03 3.6257471383e+03 0.0000000000e+00 0.0000e+00 -1.0000e+00
  5000001  2    1    2    0    0 -7.8973056097e+01 +4.5702838494e+00 -3.5310113723e+03 3.6656746325e+03 9.8126019438e+02 0.0000e+00 0.0000e+00
  5000521  1    3    3    0    0 -3.1432138032e+02 -3.5339408034e+02 -2.5739399758e+03 2.6170503062e+03 1.0000000000e+01 0.0000e+00 -1.0000e+00
 -5000521  1    3    3    0    0 +2.3534832423e+02 +3.5796436419e+02 -9.5707139648e+02 1.0486243263e+03 1.0000000000e+01 0.0000e+00 1.0000e+00
        2  1    1    2  501    0 +7.8973056097e+01 -4.5702838494e+00 +2.9682421018e+01 8.4490692986e+01 0.0000000000e+00 0.0000e+00 -1.0000e+00
<mgrwt>
<rscale>  1 0.98444360E+03</rscale>
<asrwt>0</asrwt>
<pdfrwt beam="1">  1       21 0.19141265E-01 0.98444360E+03</pdfrwt>
<pdfrwt beam="2">  1        2 0.55780710E+00 0.98444360E+03</pdfrwt>
<totfact> 0.20530561E+02</totfact>
</mgrwt>
</event>
<event>
 6      1 +3.0741590e+01 1.00342200e+03 7.81860800e-03 9.30480000e-02
        2 -1    0    0  502    0 +0.0000000000e+00 +0.0000000000e+00 +2.7515375013e+03 2.7515375013e+03 0.0000000000e+00 0.0000e+00 -1.0000e+00
       -2 -1    0    0    0  501 -0.0000000000e+00 -0.0000000000e+00 -1.4569050495e+02 1.4569050495e+02 0.0000000000e+00 0.0000e+00 1.0000e+00
  5000001  2    1    2    0    0 +1.6938809579e+01 -1.3102592375e+01 +1.5834820263e+03 1.8746387763e+03 1.0031932081e+03 0.0000e+00 0.0000e+00
  5000521  1    3    3    0    0 -9.8417803474e+01 -4.9060132962e+02 +6.5670650592e+02 8.2567497454e+02 1.0000000000e+01 0.0000e+00 1.0000e+00
 -5000521  1    3    3    0    0 +1.1535661305e+02 +4.7749873725e+02 +9.2677552040e+02 1.0489638018e+03 1.0000000000e+01 0.0000e+00 -1.0000e+00
       21  1    1    2  502  501 -1.6938809579e+01 +1.3102592375e+01 +1.0223649700e+03 1.0225892299e+03 0.0000000000e+00 0.0000e+00 1.0000e+00
<mgrwt>
<rscale>  1 0.10034218E+04</rscale>
<asrwt>0</asrwt>
<pdfrwt beam="1">  1        2 0.42331342E+00 0.10034218E+04</pdfrwt>
<pdfrwt beam="2">  1       -2 0.22413926E-01 0.10034218E+04</pdfrwt>
<totfact> 0.43851640E+01</totfact>
</mgrwt>
</event>
<event>
 6      1 +3.0741590e+01 1.00685800e+03 7.81860800e-03 9.30105400e-02
        2 -1    0    0  502    0 -0.0000000000e+00 +0.0000000000e+00 +1.5903712936e+03 1.5903712936e+03 0.0000000000e+00 0.0000e+00 1.0000e+00
       21 -1    0    0  501  502 +0.0000000000e+00 -0.0000000000e+00 -6.9642376510e+02 6.9642376510e+02 0.0000000000e+00 0.0000e+00 1.0000e+00
  5000001  2    1    2    0    0 -3.9187377368e+01 +7.2813906464e+01 +1.4275072018e+03 1.7468659518e+03 1.0034571874e+03 0.0000e+00 0.0000e+00
  5000521  1    3    3    0    0 -2.2230490023e+02 +2.9971740352e+02 +1.4055674688e+03 1.4542936086e+03 1.0000000000e+01 0.0000e+00 -1.0000e+00
 -5000521  1    3    3    0    0 +1.8311752286e+02 -2.2690349706e+02 +2.1939733002e+01 2.9257234326e+02 1.0000000000e+01 0.0000e+00 1.0000e+00
        2  1    1    2  501    0 +3.9187377368e+01 -7.2813906464e+01 -5.3355967327e+02 5.3992910688e+02 0.0000000000e+00 0.0000e+00 1.0000e+00
<mgrwt>
<rscale>  1 0.10068584E+04</rscale>
<asrwt>0</asrwt>
<pdfrwt beam="1">  1       21 0.10714212E+00 0.10068584E+04</pdfrwt>
<pdfrwt beam="2">  1        2 0.24467251E+00 0.10068584E+04</pdfrwt>
<totfact> 0.81232325E+01</totfact>
</mgrwt>
</event>
<event>
 6      1 +3.0741590e+01 1.00059400e+03 7.81860800e-03 9.30789400e-02
        2 -1    0    0  502    0 +0.0000000000e+00 +0.0000000000e+00 +2.4738583894e+03 2.4738583894e+03 0.0000000000e+00 0.0000e+00 1.0000e+00
       -2 -1    0    0    0  501 -0.0000000000e+00 -0.0000000000e+00 -1.1396978393e+02 1.1396978393e+02 0.0000000000e+00 0.0000e+00 -1.0000e+00
  5000001  2    1    2    0    0 -2.5558254453e+01 +2.3837107935e+01 +2.3455403374e+03 2.5500484845e+03 9.9998318348e+02 0.0000e+00 0.0000e+00
  5000521  1    3    3    0    0 -4.7878405957e+02 +1.1970660534e+02 +1.5788321902e+03 1.6541991814e+03 1.0000000000e+01 0.0000e+00 1.0000e+00
 -5000521  1    3    3    0    0 +4.5322580511e+02 -9.5869497409e+01 +7.6670814717e+02 8.9584930312e+02 1.0000000000e+01 0.0000e+00 -1.0000e+00
       21  1    1    2  502  501 +2.5558254453e+01 -2.3837107935e+01 +1.4348268079e+01 3.7779688753e+01 0.0000000000e+00 0.0000e+00 -1.0000e+00
<mgrwt>
<rscale>  1 0.10005937E+04</rscale>
<asrwt>0</asrwt>
<pdfrwt beam="1">  1        2 0.38059356E+00 0.10005937E+04</pdfrwt>
<pdfrwt beam="2">  1       -2 0.17533815E-01 0.10005937E+04</pdfrwt>
<totfact> 0.97861938E+01</totfact>
</mgrwt>
</event>
<event>
 6      1 +3.0741590e+01 1.00996700e+03 7.81860800e-03 9.29768000e-02
       21 -1    0    0  501  502 +0.0000000000e+00 +0.0000000000e+00 +2.0116250136e+03 2.0116250136e+03 0.0000000000e+00 0.0000e+00 1.0000e+00
        4 -1    0    0  502    0 -0.0000000000e+00 -0.0000000000e+00 -2.0035169044e+02 2.0035169044e+02 0.0000000000e+00 0.0000e+00 -1.0000e+00
  5000001  2    1    2    0    0 +9.3532721913e+01 +1.0706577734e+02 +1.1280138603e+03 1.5140834856e+03 9.9991103684e+02 0.0000e+00 0.0000e+00
  5000521  1    3    3    0    0 +1.1751116067e+02 +3.5593155713e+02 +1.1971434922e+03 1.2544914058e+03 1.0000000000e+01 0.0000e+00 1.0000e+00
 -5000521  1    3    3    0    0 -2.3978438757e+01 -2.4886577979e+02 -6.9129631958e+01 2.5959207979e+02 1.0000000000e+01 0.0000e+00 -1.0000e+00
        4  1    1    2  501    0 -9.3532721913e+01 -1.0706577734e+02 +6.8325946290e+02 6.9789321847e+02 0.0000000000e+00 0.0000e+00 -1.0000e+00
<mgrwt>
<rscale>  1 0.10099671E+04</rscale>
<asrwt>0</asrwt>
<pdfrwt beam="1">  1       21 0.30948076E+00 0.10099671E+04</pdfrwt>
<pdfrwt beam="2">  1        4 0.30823338E-01 0.10099671E+04</pdfrwt>
<totfact> 0.94869147E+00</totfact>
</mgrwt>
</event>
<event>
 6      1 +3.0741590e+01 1.03826400e+03 7.81860800e-03 9.26754500e-02
        1 -1    0    0  502    0 +0.0000000000e+00 +0.0000000000e+00 +4.7519364423e+02 4.7519364423e+02 0.0000000000e+00 0.0000e+00 -1.0000e+00
       -1 -1    0    0    0  501 -0.0000000000e+00 -0.0000000000e+00 -9.2007412364e+02 9.2007412364e+02 0.0000000000e+00 0.0000e+00 1.0000e+00
  5000001  2    1    2    0    0 +4.2882274302e+01 -2.6646029269e+02 -4.3352933763e+02 1.1251403434e+03 1.0025732536e+03 0.0000e+00 0.0000e+00
  5000521  1    3    3    0    0 +4.1749346962e+02 -4.2454815984e+02 -3.9926195903e+02 7.1697423184e+02 1.0000000000e+01 0.0000e+00 1.0000e+00
 -5000521  1    3    3    0    0 -3.7461119532e+02 +1.5808786715e+02 -3.4267378598e+01 4.0816611157e+02 1.0000000000e+01 0.0000e+00 -1.0000e+00
       21  1    1    2  502  501 -4.2882274302e+01 +2.6646029269e+02 -1.1351141783e+01 2.7012742446e+02 0.0000000000e+00 0.0000e+00 1.0000e+00
<mgrwt>
<rscale>  1 0.10382645E+04</rscale>
<asrwt>0</asrwt>
<pdfrwt beam="1">  1        1 0.73106715E-01 0.10382645E+04</pdfrwt>
<pdfrwt beam="2">  1       -1 0.14154986E+00 0.10382645E+04</pdfrwt>
<totfact> 0.19355978E+01</totfact>
</mgrwt>
</event>
<event>
 6      1 +3.0741590e+01 1.00623200e+03 7.81860800e-03 9.30173600e-02
        2 -1    0    0  502    0 +0.0000000000e+00 +0.0000000000e+00 +1.0163226589e+03 1.0163226589e+03 0.0000000000e+00 0.0000e+00 -1.0000e+00
       -2 -1    0    0    0  501 -0.0000000000e+00 -0.0000000000e+00 -3.7984403652e+02 3.7984403652e+02 0.0000000000e+00 0.0000e+00 1.0000e+00
  5000001  2    1    2    0    0 +1.0347316635e+01 -3.4278420844e+01 +2.8908771044e+02 1.0469353641e+03 1.0055942895e+03 0.0000e+00 0.0000e+00
  5000521  1    3    3    0    0 -2.5988816248e+01 -3.5697977292e+02 -2.3644193174e+02 4.2908596333e+02 1.0000000000e+01 0.0000e+00 1.0000e+00
 -5000521  1    3    3    0    0 +3.6336132882e+01 +3.2270135208e+02 +5.2552964218e+02 6.1784940074e+02 1.0000000000e+01 0.0000e+00 -1.0000e+00
       21  1    1    2  502  501 -1.0347316635e+01 +3.4278420844e+01 +3.4739091192e+02 3.4923133133e+02 0.0000000000e+00 0.0000e+00 -1.0000e+00
<mgrwt>
<rscale>  1 0.10062316E+04</rscale>
<asrwt>0</asrwt>
<pdfrwt beam="1">  1        2 0.15635733E+00 0.10062316E+04</pdfrwt>
<pdfrwt beam="2">  1       -2 0.58437544E-01 0.10062316E+04</pdfrwt>
<totfact> 0.67119914E+01</totfact>
</mgrwt>
</event>
<event>
 6      1 +3.0741590e+01 9.76710200e+02 7.81860800e-03 9.33446400e-02
       -2 -1    0    0    0  501 -0.0000000000e+00 +0.0000000000e+00 +1.7025700732e+02 1.7025700732e+02 0.0000000000e+00 0.0000e+00 1.0000e+00
        2 -1    0    0  502    0 +0.0000000000e+00 -0.0000000000e+00 -1.7799523430e+03 1.7799523430e+03 0.0000000000e+00 0.0000e+00 -1.0000e+00
  5000001  2    1    2    0    0 +6.0454750377e+01 -4.2436065406e+01 -1.6015764674e+03 1.8759024696e+03 9.7391339358e+02 0.0000e+00 0.0000e+00
  5000521  1    3    3    0    0 +4.1075783312e+02 +3.9136645698e+01 -2.6206975892e+02 4.8891127319e+02 1.0000000000e+01 0.0000e+00 1.0000e+00
 -5000521  1    3    3    0    0 -3.5030308275e+02 -8.1572711104e+01 -1.3395067085e+03 1.3869911965e+03 1.0000000000e+01 0.0000e+00 -1.0000e+00
       21  1    1    2  502  501 -6.0454750377e+01 +4.2436065406e+01 -8.1188682582e+00 7.4306880652e+01 0.0000000000e+00 0.0000e+00 1.0000e+00
<mgrwt>
<rscale>  1 0.97671024E+03</rscale>
<asrwt>0</asrwt>
<pdfrwt beam="1">  1        2 0.27383882E+00 0.97671024E+03</pdfrwt>
<pdfrwt beam="2">  1       -2 0.26193386E-01 0.97671024E+03</pdfrwt>
<totfact> 0.11685899E+02</totfact>
</mgrwt>
</event>
<event>
 6      1 +3.0741590e+01 1.27371600e+03 7.81860800e-03 9.05067200e-02
        2 -1    0    0  502    0 +0.0000000000e+00 +0.0000000000e+00 +1.1360861144e+03 1.1360861144e+03 0.0000000000e+00 0.0000e+00 -1.0000e+00
       -2 -1    0    0    0  501 -0.0000000000e+00 -0.0000000000e+00 -8.6695125336e+02 8.6695125336e+02 0.0000000000e+00 0.0000e+00 1.0000e+00
  5000001  2    1    2    0    0 +6.9871779059e+02 -9.7860249816e+01 +2.4514282413e+02 1.2970920461e+03 1.0604572563e+03 0.0000e+00 0.0000e+00
  5000521  1    3    3    0    0 +9.7900520769e+02 -4.7210490611e+01 +1.2627422540e+02 9.8829408938e+02 1.0000000000e+01 0.0000e+00 1.0000e+00
 -5000521  1    3    3    0    0 -2.8028741710e+02 -5.0649759205e+01 +1.1886859873e+02 3.0879795669e+02 1.0000000000e+01 0.0000e+00 -1.0000e+00
       21  1    1    2  502  501 -6.9871779059e+02 +9.7860249816e+01 +2.3992036913e+01 7.0594532169e+02 0.0000000000e+00 0.0000e+00 1.0000e+00
<mgrwt>
<rscale>  1 0.12737161E+04</rscale>
<asrwt>0</asrwt>
<pdfrwt beam="1">  1        2 0.17478248E+00 0.12737161E+04</pdfrwt>
<pdfrwt beam="2">  1       -2 0.13337712E+00 0.12737161E+04</pdfrwt>
<totfact> 0.81664544E+00</totfact>
</mgrwt>
</event>
<event>
 6      1 +3.0741590e+01 1.00243100e+03 7.81860800e-03 9.30588200e-02
       -1 -1    0    0    0  501 -0.0000000000e+00 +0.0000000000e+00 +3.3626676756e+02 3.3626676756e+02 0.0000000000e+00 0.0000e+00 1.0000e+00
        1 -1    0    0  502    0 +0.0000000000e+00 -0.0000000000e+00 -8.9072703427e+02 8.9072703427e+02 0.0000000000e+00 0.0000e+00 -1.0000e+00
  5000001  2    1    2    0    0 +6.9846547184e-01 +2.8513049123e+01 -6.0363469726e+02 1.1701465816e+03 1.0020252956e+03 0.0000e+00 0.0000e+00
  5000521  1    3    3    0    0 -3.6310009834e+02 +2.5008182494e+02 -5.9926852570e+02 7.4404661579e+02 1.0000000000e+01 0.0000e+00 -1.0000e+00
 -5000521  1    3    3    0    0 +3.6379856381e+02 -2.2156877582e+02 -4.3661715639e+00 4.2609996585e+02 1.0000000000e+01 0.0000e+00 1.0000e+00
       21  1    1    2  502  501 -6.9846547184e-01 -2.8513049123e+01 +4.9174430550e+01 5.6847220197e+01 0.0000000000e+00 0.0000e+00 1.0000e+00
<mgrwt>
<rscale>  1 0.10024311E+04</rscale>
<asrwt>0</asrwt>
<pdfrwt beam="1">  1        1 0.13703493E+00 0.10024311E+04</pdfrwt>
<pdfrwt beam="2">  1       -1 0.51733349E-01 0.10024311E+04</pdfrwt>
<totfact> 0.69798051E+01</totfact>
</mgrwt>
</event>
<event>
 6      1 +3.0741590e+01 1.00197200e+03 7.81860800e-03 9.30638400e-02
       -2 -1    0    0    0  501 -0.0000000000e+00 +0.0000000000e+00 +4.4464066245e+02 4.4464066245e+02 0.0000000000e+00 0.0000e+00 -1.0000e+00
        2 -1    0    0  502    0 +0.0000000000e+00 -0.0000000000e+00 -6.4764828790e+02 6.4764828790e+02 0.0000000000e+00 0.0000e+00 1.0000e+00
  5000001  2    1    2    0    0 -1.3573533237e+01 +6.6083328016e+01 -2.1221928800e+02 1.0242000249e+03 9.9969866344e+02 0.0000e+00 0.0000e+00
  5000521  1    3    3    0    0 -2.0243229839e+02 -5.3089402656e+01 +3.5628647106e+02 4.1332477492e+02 1.0000000000e+01 0.0000e+00 -1.0000e+00
 -5000521  1    3    3    0    0 +1.8885876515e+02 +1.1917273067e+02 -5.6850575906e+02 6.1087524994e+02 1.0000000000e+01 0.0000e+00 1.0000e+00
       21  1    1    2  502  501 +1.3573533237e+01 -6.6083328016e+01 +9.2116625450e+00 6.8088925480e+01 0.0000000000e+00 0.0000e+00 1.0000e+00
<mgrwt>
<rscale>  1 0.10019724E+04</rscale>
<asrwt>0</asrwt>
<pdfrwt beam="1">  1        2 0.99638197E-01 0.10019724E+04</pdfrwt>
<pdfrwt beam="2">  1       -2 0.68406256E-01 0.10019724E+04</pdfrwt>
<totfact> 0.88129969E+01</totfact>
</mgrwt>
</event>
<event>
 6      1 +3.0741590e+01 1.00329800e+03 7.81860800e-03 9.30493500e-02
       -3 -1    0    0    0  501 -0.0000000000e+00 +0.0000000000e+00 +4.0730603099e+02 4.0730603099e+02 0.0000000000e+00 0.0000e+00 1.0000e+00
       21 -1    0    0  501  502 +0.0000000000e+00 -0.0000000000e+00 -6.5855041152e+02 6.5855041152e+02 0.0000000000e+00 0.0000e+00 -1.0000e+00
  5000001  2    1    2    0    0 -1.4479485300e+01 -2.2879577505e+01 -2.2514663704e+02 1.0282502891e+03 1.0029329580e+03 0.0000e+00 0.0000e+00
  5000521  1    3    3    0    0 -3.1323562092e+00 -2.6629998560e+02 +3.2865069833e+02 4.2312737503e+02 1.0000000000e+01 0.0000e+00 1.0000e+00
 -5000521  1    3    3    0    0 -1.1347129091e+01 +2.4342040810e+02 -5.5379733537e+02 6.0512291402e+02 1.0000000000e+01 0.0000e+00 -1.0000e+00
       -3  1    1    2    0  502 +1.4479485300e+01 +2.2879577505e+01 -2.6097743495e+01 3.7606153444e+01 0.0000000000e+00 0.0000e+00 1.0000e+00
<mgrwt>
<rscale>  1 0.10032984E+04</rscale>
<asrwt>0</asrwt>
<pdfrwt beam="1">  1       21 0.10131545E+00 0.10032984E+04</pdfrwt>
<pdfrwt beam="2">  1       -3 0.62662466E-01 0.10032984E+04</pdfrwt>
<totfact> 0.85672261E+01</totfact>
</mgrwt>
</event>
<event>
 6      1 +3.0741590e+01 1.00812200e+03 7.81860800e-03 9.29968200e-02
       21 -1    0    0  501  502 +0.0000000000e+00 +0.0000000000e+00 +3.0510041612e+02 3.0510041612e+02 0.0000000000e+00 0.0000e+00 1.0000e+00
        1 -1    0    0  502    0 -0.0000000000e+00 -0.0000000000e+00 -9.2102573272e+02 9.2102573272e+02 0.0000000000e+00 0.0000e+00 -1.0000e+00
  5000001  2    1    2    0    0 -2.9928876734e+01 +4.2515196724e+01 -5.8233760583e+02 1.1642277326e+03 1.0067799395e+03 0.0000e+00 0.0000e+00
  5000521  1    3    3    0    0 +5.7910097642e+01 +9.0142943354e+01 +2.7797397579e+02 2.9807526040e+02 1.0000000000e+01 0.0000e+00 1.0000e+00
 -5000521  1    3    3    0    0 -8.7838974376e+01 -4.7627746630e+01 -8.6031158162e+02 8.6615247223e+02 1.0000000000e+01 0.0000e+00 -1.0000e+00
        1  1    1    2  501    0 +2.9928876734e+01 -4.2515196724e+01 -3.3587710769e+01 6.1898416213e+01 0.0000000000e+00 0.0000e+00 -1.0000e+00
<mgrwt>
<rscale>  1 0.10081216E+04</rscale>
<asrwt>0</asrwt>
<pdfrwt beam="1">  1       21 0.46938526E-01 0.10081216E+04</pdfrwt>
<pdfrwt beam="2">  1        1 0.14169627E+00 0.10081216E+04</pdfrwt>
<totfact> 0.74348988E+02</totfact>
</mgrwt>
</event>
<event>
 6      1 +3.0741590e+01 1.00287700e+03 7.81860800e-03 9.30539500e-02
        2 -1    0    0  502    0 -0.0000000000e+00 +0.0000000000e+00 +2.2895744409e+03 2.2895744409e+03 0.0000000000e+00 0.0000e+00 1.0000e+00
       21 -1    0    0  501  502 +0.0000000000e+00 -0.0000000000e+00 -1.4503186891e+02 1.4503186891e+02 0.0000000000e+00 0.0000e+00 -1.0000e+00
  5000001  2    1    2    0    0 -3.6071443042e+01 -4.4730096781e+01 +2.1543258813e+03 2.3763169994e+03 1.0012295183e+03 0.0000e+00 0.0000e+00
  5000521  1    3    3    0    0 -4.3223821871e+02 -2.3883800552e+02 +1.5583455403e+03 1.6347520588e+03 1.0000000000e+01 0.0000e+00 1.0000e+00
 -5000521  1    3    3    0    0 +3.9616677567e+02 +1.9410790874e+02 +5.9598034098e+02 7.4156494066e+02 1.0000000000e+01 0.0000e+00 -1.0000e+00
        2  1    1    2  501    0 +3.6071443042e+01 +4.4730096781e+01 -9.7833093296e+00 5.8289310363e+01 0.0000000000e+00 0.0000e+00 1.0000e+00
<mgrwt>
<rscale>  1 0.10028771E+04</rscale>
<asrwt>0</asrwt>
<pdfrwt beam="1">  1       21 0.22312597E-01 0.10028771E+04</pdfrwt>
<pdfrwt beam="2">  1        2 0.35224220E+00 0.10028771E+04</pdfrwt>
<totfact> 0.10229101E+03</totfact>
</mgrwt>
</event>
<event>
 6      1 +3.0741590e+01 1.02239800e+03 7.81860800e-03 9.28431500e-02
        3 -1    0    0  502    0 +0.0000000000e+00 +0.0000000000e+00 +1.1362129885e+03 1.1362129885e+03 0.0000000000e+00 0.0000e+00 -1.0000e+00
       -3 -1    0    0    0  501 -0.0000000000e+00 -0.0000000000e+00 -2.6448029892e+02 2.6448029892e+02 0.0000000000e+00 0.0000e+00 1.0000e+00
  5000001  2    1    2    0    0 -4.7443283655e+01 -4.5767699603e+01 +7.7192004900e+02 1.2810767722e+03 1.0202703498e+03 0.0000e+00 0.0000e+00
  5000521  1    3    3    0    0 -1.3198444791e+02 -3.9106675136e+02 -1.9606683482e+01 4.1332495756e+02 1.0000000000e+01 0.0000e+00 1.0000e+00
 -5000521  1    3    3    0    0 +8.4541164257e+01 +3.4529905175e+02 +7.9152673249e+02 8.6775181465e+02 1.0000000000e+01 0.0000e+00 -1.0000e+00
       21  1    1    2  502  501 +4.7443283655e+01 +4.5767699603e+01 +9.9812640596e+01 1.1961651522e+02 0.0000000000e+00 0.0000e+00 1.0000e+00
<mgrwt>
<rscale>  1 0.10223977E+04</rscale>
<asrwt>0</asrwt>
<pdfrwt beam="1">  1        3 0.17480199E+00 0.10223977E+04</pdfrwt>
<pdfrwt beam="2">  1       -3 0.40689278E-01 0.10223977E+04</pdfrwt>
<totfact> 0.33758777E+00</totfact>
</mgrwt>
</event>
<event>
 6      1 +3.0741590e+01 1.00884000e+03 7.81860800e-03 9.29890200e-02
       -1 -1    0    0    0  501 -0.0000000000e+00 +0.0000000000e+00 +1.5695813499e+03 1.5695813499e+03 0.0000000000e+00 0.0000e+00 -1.0000e+00
       21 -1    0    0  501  502 +0.0000000000e+00 -0.0000000000e+00 -2.5006953114e+02 2.5006953114e+02 0.0000000000e+00 0.0000e+00 1.0000e+00
  5000001  2    1    2    0    0 -1.1853395608e+02 +8.7511338697e+01 +1.3329738653e+03 1.6716989975e+03 9.9802288535e+02 0.0000e+00 0.0000e+00
  5000521  1    3    3    0    0 -4.7851089179e+02 +2.6800595885e+02 +4.8208474911e+02 7.3027773680e+02 1.0000000000e+01 0.0000e+00 1.0000e+00
 -5000521  1    3    3    0    0 +3.5997693571e+02 -1.8049462015e+02 +8.5088911614e+02 9.4142126071e+02 1.0000000000e+01 0.0000e+00 -1.0000e+00
       -1  1    1    2    0  502 +1.1853395608e+02 -8.7511338697e+01 -1.3462046492e+01 1.4795188353e+02 0.0000000000e+00 0.0000e+00 -1.0000e+00
<mgrwt>
<rscale>  1 0.10088400E+04</rscale>
<asrwt>0</asrwt>
<pdfrwt beam="1">  1       21 0.38472236E-01 0.10088400E+04</pdfrwt>
<pdfrwt beam="2">  1       -1 0.24147405E+00 0.10088400E+04</pdfrwt>
<totfact> 0.44186330E+01</totfact>
</mgrwt>
</event>
<event>
 6      1 +3.0741590e+01 9.72985000e+02 7.81860800e-03 9.33868100e-02
        1 -1    0    0  502    0 +0.0000000000e+00 +0.0000000000e+00 +3.2927183324e+03 3.2927183324e+03 0.0000000000e+00 0.0000e+00 -1.0000e+00
       -1 -1    0    0    0  501 -0.0000000000e+00 -0.0000000000e+00 -8.9363525254e+01 8.9363525254e+01 0.0000000000e+00 0.0000e+00 1.0000e+00
  5000001  2    1    2    0    0 -4.8413314663e+01 -3.0037603442e+01 +3.1702221204e+03 3.3161737277e+03 9.7131549633e+02 0.0000e+00 0.0000e+00
  5000521  1    3    3    0    0 +4.2177751918e+02 +4.3640747022e+01 +8.7848737505e+02 9.7552081403e+02 1.0000000000e+01 0.0000e+00 1.0000e+00
 -5000521  1    3    3    0    0 -4.7019083384e+02 -7.3678350464e+01 +2.2917347453e+03 2.3406529137e+03 1.0000000000e+01 0.0000e+00 -1.0000e+00
       21  1    1    2  502  501 +4.8413314663e+01 +3.0037603442e+01 +3.3132686798e+01 6.5908129936e+01 0.0000000000e+00 0.0000e+00 -1.0000e+00
<mgrwt>
<rscale>  1 0.97298505E+03</rscale>
<asrwt>0</asrwt>
<pdfrwt beam="1">  1        1 0.50657196E+00 0.97298505E+03</pdfrwt>
<pdfrwt beam="2">  1       -1 0.13748237E-01 0.97298505E+03</pdfrwt>
<totfact> 0.14194920E+01</totfact>
</mgrwt>
</event>
<event>
 6      1 +3.0741590e+01 9.95543800e+02 7.81860800e-03 9.31344600e-02
       -2 -1    0    0    0  501 -0.0000000000e+00 +0.0000000000e+00 +3.9372177676e+02 3.9372177676e+02 0.0000000000e+00 0.0000e+00 1.0000e+00
        2 -1    0    0  502    0 +0.0000000000e+00 -0.0000000000e+00 -6.6441248326e+02 6.6441248326e+02 0.0000000000e+00 0.0000e+00 -1.0000e+00
  5000001  2    1    2    0    0 +2.5703566447e+01 +7.1874902932e+00 -2.5721142004e+02 1.0282340174e+03 9.9518598594e+02 0.0000e+00 0.0000e+00
  5000521  1    3    3    0    0 +1.1117685096e+02 +1.8650667787e+02 +3.3733611653e+02 4.0129875230e+02 1.0000000000e+01 0.0000e+00 1.0000e+00
 -5000521  1    3    3    0    0 -8.5473284512e+01 -1.7931918758e+02 -5.9454753657e+02 6.2693526511e+02 1.0000000000e+01 0.0000e+00 -1.0000e+00
       21  1    1    2  502  501 -2.5703566447e+01 -7.1874902932e+00 -1.3479286465e+01 2.9900242614e+01 0.0000000000e+00 0.0000e+00 1.0000e+00
<mgrwt>
<rscale>  1 0.99554381E+03</rscale>
<asrwt>0</asrwt>
<pdfrwt beam="1">  1        2 0.10221730E+00 0.99554381E+03</pdfrwt>
<pdfrwt beam="2">  1       -2 0.60572581E-01 0.99554381E+03</pdfrwt>
<totfact> 0.11094053E+02</totfact>
</mgrwt>
</event>
<event>
 5      1 +3.0741590e+01 3.31514900e+02 7.81860800e-03 1.07046900e-01
       -2 -1    0    0    0  501 -0.0000000000e+00 +0.0000000000e+00 +3.0092697512e+01 3.0092697512e+01 0.0000000000e+00 0.0000e+00 1.0000e+00
        2 -1    0    0  502    0 +0.0000000000e+00 -0.0000000000e+00 -2.3504704933e+03 2.3504704933e+03 0.0000000000e+00 0.0000e+00 -1.0000e+00
  5000521  1    1    2    0    0 +1.8414540252e+02 +5.7075778968e+00 -1.2457937242e+03 1.2593824316e+03 1.0000000000e+01 0.0000e+00 1.0000e+00
 -5000521  1    1    2    0    0 -1.4299755456e+02 -3.1787760817e+01 -1.0602929749e+03 1.0704111150e+03 1.0000000000e+01 0.0000e+00 -1.0000e+00
       21  1    1    2  502  501 -4.1147847961e+01 +2.6080182920e+01 -1.4291096618e+01 5.0769644233e+01 0.0000000000e+00 0.0000e+00 1.0000e+00
<mgrwt>
<rscale>  1 0.33151486E+03</rscale>
<asrwt>0</asrwt>
<pdfrwt beam="1">  1        2 0.36161075E+00 0.33151486E+03</pdfrwt>
<pdfrwt beam="2">  1       -2 0.46296470E-02 0.33151486E+03</pdfrwt>
<totfact> 0.10564670E+03</totfact>
</mgrwt>
</event>
<event>
 6      1 +3.0741590e+01 1.00022000e+03 7.81860800e-03 9.30830300e-02
        1 -1    0    0  502    0 +0.0000000000e+00 +0.0000000000e+00 +3.3948780688e+03 3.3948780688e+03 0.0000000000e+00 0.0000e+00 -1.0000e+00
       -1 -1    0    0    0  501 -0.0000000000e+00 -0.0000000000e+00 -8.7095128011e+01 8.7095128011e+01 0.0000000000e+00 0.0000e+00 1.0000e+00
  5000001  2    1    2    0    0 -4.6739564006e+01 -6.7904410943e+01 +2.9551205970e+03 3.1198042796e+03 9.9681763844e+02 0.0000e+00 0.0000e+00
  5000521  1    3    3    0    0 +2.7919138615e+02 +3.8215156700e+01 +2.0556844739e+02 3.4895073415e+02 1.0000000000e+01 0.0000e+00 1.0000e+00
 -5000521  1    3    3    0    0 -3.2593095015e+02 -1.0611956764e+02 +2.7495521496e+03 2.7708535454e+03 1.0000000000e+01 0.0000e+00 -1.0000e+00
       21  1    1    2  502  501 +4.6739564006e+01 +6.7904410943e+01 +3.5266234383e+02 3.6216891725e+02 0.0000000000e+00 0.0000e+00 1.0000e+00
<mgrwt>
<rscale>  1 0.10002205E+04</rscale>
<asrwt>0</asrwt>
<pdfrwt beam="1">  1        1 0.52228883E+00 0.10002205E+04</pdfrwt>
<pdfrwt beam="2">  1       -1 0.13399253E-01 0.10002205E+04</pdfrwt>
<totfact> 0.12343465E+01</totfact>
</mgrwt>
</event>
<event>
 6      1 +3.0741590e+01 9.93592400e+02 7.81860800e-03 9.31560100e-02
       21 -1    0    0  501  502 +0.0000000000e+00 +0.0000000000e+00 +3.3786345377e+02 3.3786345377e+02 0.0000000000e+00 0.0000e+00 -1.0000e+00
        2 -1    0    0  502    0 -0.0000000000e+00 -0.0000000000e+00 -9.9917775098e+02 9.9917775098e+02 0.0000000000e+00 0.0000e+00 1.0000e+00
  5000001  2    1    2    0    0 +3.5571796330e+01 +1.6179209911e+01 -7.4686114926e+02 1.2429913062e+03 9.9282359531e+02 0.0000e+00 0.0000e+00
  5000521  1    3    3    0    0 +2.3180709908e+02 -3.1773356567e+02 -7.5949633958e+02 8.5535012701e+02 1.0000000000e+01 0.0000e+00 1.0000e+00
 -5000521  1    3    3    0    0 -1.9623530275e+02 +3.3391277558e+02 +1.2635190319e+01 3.8764117916e+02 1.0000000000e+01 0.0000e+00 -1.0000e+00
        2  1    1    2  501    0 -3.5571796330e+01 -1.6179209911e+01 +8.5546852052e+01 9.4049898583e+01 0.0000000000e+00 0.0000e+00 1.0000e+00
<mgrwt>
<rscale>  1 0.99359238E+03</rscale>
<asrwt>0</asrwt>
<pdfrwt beam="1">  1       21 0.51978993E-01 0.99359238E+03</pdfrwt>
<pdfrwt beam="2">  1        2 0.15371965E+00 0.99359238E+03</pdfrwt>
<totfact> 0.97827143E+02</totfact>
</mgrwt>
</event>
<event>
 6      1 +3.0741590e+01 1.00103200e+03 7.81860800e-03 9.30741300e-02
       -2 -1    0    0    0  501 -0.0000000000e+00 +0.0000000000e+00 +3.4725039793e+02 3.4725039793e+02 0.0000000000e+00 0.0000e+00 -1.0000e+00
        2 -1    0    0  502    0 +0.0000000000e+00 -0.0000000000e+00 -8.7975565693e+02 8.7975565693e+02 0.0000000000e+00 0.0000e+00 1.0000e+00
  5000001  2    1    2    0    0 +9.1757646389e+01 +2.8016280718e+01 -5.2607982531e+02 1.1308516797e+03 9.9642418745e+02 0.0000e+00 0.0000e+00
  5000521  1    3    3    0    0 -2.5961366834e+02 +3.1438620249e+02 +3.5154474192e+01 4.0935776304e+02 1.0000000000e+01 0.0000e+00 -1.0000e+00
 -5000521  1    3    3    0    0 +3.5137131473e+02 -2.8636992177e+02 -5.6123429950e+02 7.2149391671e+02 1.0000000000e+01 0.0000e+00 1.0000e+00
       21  1    1    2  502  501 -9.1757646389e+01 -2.8016280718e+01 -6.4254336890e+00 9.6154375117e+01 0.0000000000e+00 0.0000e+00 -1.0000e+00
<mgrwt>
<rscale>  1 0.10010322E+04</rscale>
<asrwt>0</asrwt>
<pdfrwt beam="1">  1        2 0.13534702E+00 0.10010322E+04</pdfrwt>
<pdfrwt beam="2">  1       -2 0.53423138E-01 0.10010322E+04</pdfrwt>
<totfact> 0.99733244E+01</totfact>
</mgrwt>
</event>
<event>
 6      1 +3.0741590e+01 1.01369300e+03 7.81860800e-03 9.29365300e-02
       21 -1    0    0  501  502 +0.0000000000e+00 +0.0000000000e+00 +7.7835813327e+02 7.7835813327e+02 0.0000000000e+00 0.0000e+00 1.0000e+00
        1 -1    0    0  502    0 -0.0000000000e+00 -0.0000000000e+00 -4.3806664208e+02 4.3806664208e+02 0.0000000000e+00 0.0000e+00 -1.0000e+00
  5000001  2    1    2    0    0 -6.0118643856e+01 -9.4030387956e+01 +1.9345408030e+02 1.0319872780e+03 1.0075302951e+03 0.0000e+00 0.0000e+00
  5000521  1    3    3    0    0 -3.6366557103e+02 -4.2740680006e+02 +1.3457564579e+02 5.7718266149e+02 1.0000000000e+01 0.0000e+00 -1.0000e+00
 -5000521  1    3    3    0    0 +3.0354692717e+02 +3.3337641210e+02 +5.8878434511e+01 4.5480461650e+02 1.0000000000e+01 0.0000e+00 1.0000e+00
        1  1    1    2  501    0 +6.0118643856e+01 +9.4030387956e+01 +1.4683741088e+02 1.8443749736e+02 0.0000000000e+00 0.0000e+00 -1.0000e+00
<mgrwt>
<rscale>  1 0.10136929E+04</rscale>
<asrwt>0</asrwt>
<pdfrwt beam="1">  1       21 0.11974740E+00 0.10136929E+04</pdfrwt>
<pdfrwt beam="2">  1        1 0.67394868E-01 0.10136929E+04</pdfrwt>
<totfact> 0.25281897E+02</totfact>
</mgrwt>
</event>
<event>
 6      1 +3.0741590e+01 9.96600500e+02 7.81860800e-03 9.31228100e-02
       -2 -1    0    0    0  501 -0.0000000000e+00 +0.0000000000e+00 +1.2103372436e+02 1.2103372436e+02 0.0000000000e+00 0.0000e+00 -1.0000e+00
        2 -1    0    0  502    0 +0.0000000000e+00 -0.0000000000e+00 -2.2698256024e+03 2.2698256024e+03 0.0000000000e+00 0.0000e+00 1.0000e+00
  5000001  2    1    2    0    0 -2.8190018873e+01 -7.8352359089e-01 -1.9483410578e+03 2.1884344705e+03 9.9620141705e+02 0.0000e+00 0.0000e+00
  5000521  1    3    3    0    0 -1.7280922890e+02 +9.0922653860e+01 -1.9998078450e+03 2.0093435186e+03 1.0000000000e+01 0.0000e+00 1.0000e+00
 -5000521  1    3    3    0    0 +1.4461921002e+02 -9.1706177451e+01 +5.1466787244e+01 1.7909095197e+02 1.0000000000e+01 0.0000e+00 -1.0000e+00
       21  1    1    2  502  501 +2.8190018873e+01 +7.8352359089e-01 -2.0045082023e+02 2.0242485619e+02 0.0000000000e+00 0.0000e+00 -1.0000e+00
<mgrwt>
<rscale>  1 0.99660050E+03</rscale>
<asrwt>0</asrwt>
<pdfrwt beam="1">  1        2 0.34920395E+00 0.99660050E+03</pdfrwt>
<pdfrwt beam="2">  1       -2 0.18620573E-01 0.99660050E+03</pdfrwt>
<totfact> 0.11496264E+02</totfact>
</mgrwt>
</event>
<event>
 6      1 +3.0741590e+01 1.00781100e+03 7.81860800e-03 9.30001900e-02
        2 -1    0    0  502    0 +0.0000000000e+00 +0.0000000000e+00 +4.1679033102e+03 4.1679033102e+03 0.0000000000e+00 0.0000e+00 1.0000e+00
       -2 -1    0    0    0  501 -0.0000000000e+00 -0.0000000000e+00 -1.0807230160e+02 1.0807230160e+02 0.0000000000e+00 0.0000e+00 -1.0000e+00
  5000001  2    1    2    0    0 -2.6197359041e+01 -9.0847717790e+01 +2.2701668248e+03 2.4838156022e+03 1.0033657975e+03 0.0000e+00 0.0000e+00
  5000521  1    3    3    0    0 -2.1725371561e+01 -5.4511149560e+02 +1.3904262500e+03 1.4936544751e+03 1.0000000000e+01 0.0000e+00 -1.0000e+00
 -5000521  1    3    3    0    0 -4.4719874805e+00 +4.5426377781e+02 +8.7974057483e+02 9.9016112704e+02 1.0000000000e+01 0.0000e+00 1.0000e+00
       21  1    1    2  502  501 +2.6197359041e+01 +9.0847717790e+01 +1.7896641838e+03 1.7921600096e+03 0.0000000000e+00 0.0000e+00 1.0000e+00
<mgrwt>
<rscale>  1 0.10078108E+04</rscale>
<asrwt>0</asrwt>
<pdfrwt beam="1">  1        2 0.64121577E+00 0.10078108E+04</pdfrwt>
<pdfrwt beam="2">  1       -2 0.16626511E-01 0.10078108E+04</pdfrwt>
<totfact> 0.77295088E+00</totfact>
</mgrwt>
</event>
<event>
 6      1 +3.0741590e+01 9.84294100e+02 7.81860800e-03 9.32594000e-02
       -1 -1    0    0    0  501 -0.0000000000e+00 +0.0000000000e+00 +2.0285291143e+02 2.0285291143e+02 0.0000000000e+00 0.0000e+00 1.0000e+00
        1 -1    0    0  502    0 +0.0000000000e+00 -0.0000000000e+00 -1.6391439960e+03 1.6391439960e+03 0.0000000000e+00 0.0000e+00 -1.0000e+00
  5000001  2    1    2    0    0 -5.8733497362e+01 -1.7678586240e+01 -1.0062834652e+03 1.4076367932e+03 9.8238117505e+02 0.0000e+00 0.0000e+00
  5000521  1    3    3    0    0 -1.0278779308e+02 +4.0345304851e+02 -1.3320376593e+02 4.3724470954e+02 1.0000000000e+01 0.0000e+00 1.0000e+00
 -5000521  1    3    3    0    0 +4.4054295720e+01 -4.2113163475e+02 -8.7307969924e+02 9.7039208364e+02 1.0000000000e+01 0.0000e+00 -1.0000e+00
       21  1    1    2  502  501 +5.8733497362e+01 +1.7678586240e+01 -4.3000761941e+02 4.3436011428e+02 0.0000000000e+00 0.0000e+00 -1.0000e+00
<mgrwt>
<rscale>  1 0.98429413E+03</rscale>
<asrwt>0</asrwt>
<pdfrwt beam="1">  1        1 0.25217601E+00 0.98429413E+03</pdfrwt>
<pdfrwt beam="2">  1       -1 0.31208139E-01 0.98429413E+03</pdfrwt>
<totfact> 0.50232806E+01</totfact>
</mgrwt>
</event>
<event>
 6      1 +3.0741590e+01 9.98392000e+02 7.81860800e-03 9.31031000e-02
        1 -1    0    0  502    0 +0.0000000000e+00 +0.0000000000e+00 +5.3274161466e+02 5.3274161466e+02 0.0000000000e+00 0.0000e+00 -1.0000e+00
       -1 -1    0    0    0  501 -0.0000000000e+00 -0.0000000000e+00 -5.2467231075e+02 5.2467231075e+02 0.0000000000e+00 0.0000e+00 1.0000e+00
  5000001  2    1    2    0    0 +2.9952330973e+01 -1.3034470714e+01 +5.5374330895e+01 9.9992649083e+02 9.9785752038e+02 0.0000e+00 0.0000e+00
  5000521  1    3    3    0    0 +2.0150527707e+02 +3.3557259933e+02 +3.3969702157e+02 5.1836995725e+02 1.0000000000e+01 0.0000e+00 -1.0000e+00
 -5000521  1    3    3    0    0 -1.7155294610e+02 -3.4860707005e+02 -2.8432269068e+02 4.8155653358e+02 1.0000000000e+01 0.0000e+00 1.0000e+00
       21  1    1    2  502  501 -2.9952330973e+01 +1.3034470714e+01 -4.7305026977e+01 5.7487434582e+01 0.0000000000e+00 0.0000e+00 1.0000e+00
<mgrwt>
<rscale>  1 0.99839204E+03</rscale>
<asrwt>0</asrwt>
<pdfrwt beam="1">  1        1 0.81960248E-01 0.99839204E+03</pdfrwt>
<pdfrwt beam="2">  1       -1 0.80718817E-01 0.99839204E+03</pdfrwt>
<totfact> 0.62289803E+01</totfact>
</mgrwt>
</event>
<event>
 6      1 +3.0741590e+01 1.00269300e+03 7.81860800e-03 9.30559600e-02
        2 -1    0    0  502    0 -0.0000000000e+00 +0.0000000000e+00 +2.1003681524e+02 2.1003681524e+02 0.0000000000e+00 0.0000e+00 -1.0000e+00
       21 -1    0    0  501  502 +0.0000000000e+00 -0.0000000000e+00 -1.4080645093e+03 1.4080645093e+03 0.0000000000e+00 0.0000e+00 1.0000e+00
  5000001  2    1    2    0    0 -4.6057334212e+01 -4.4221136235e+01 -1.0259587771e+03 1.4345679512e+03 1.0006582871e+03 0.0000e+00 0.0000e+00
  5000521  1    3    3    0    0 -2.1759758076e+02 +1.6495712348e+02 +8.8881728698e+01 2.8733172716e+02 1.0000000000e+01 0.0000e+00 -1.0000e+00
 -5000521  1    3    3    0    0 +1.7154024655e+02 -2.0917825971e+02 -1.1148405057e+03 1.1472362241e+03 1.0000000000e+01 0.0000e+00 1.0000e+00
        2  1    1    2  501    0 +4.6057334212e+01 +4.4221136235e+01 -1.7206891706e+02 1.8353337337e+02 0.0000000000e+00 0.0000e+00 -1.0000e+00
<mgrwt>
<rscale>  1 0.10026933E+04</rscale>
<asrwt>0</asrwt>
<pdfrwt beam="1">  1       21 0.21662532E+00 0.10026933E+04</pdfrwt>
<pdfrwt beam="2">  1        2 0.32313355E-01 0.10026933E+04</pdfrwt>
<totfact> 0.16034514E+02</totfact>
</mgrwt>
</event>
<event>
 6      1 +3.0741590e+01 1.14178400e+03 7.81860800e-03 9.16539600e-02
        2 -1    0    0  502    0 +0.0000000000e+00 +0.0000000000e+00 +1.1856901058e+03 1.1856901058e+03 0.0000000000e+00 0.0000e+00 1.0000e+00
       -2 -1    0    0    0  501 -0.0000000000e+00 -0.0000000000e+00 -3.0470055625e+02 3.0470055625e+02 0.0000000000e+00 0.0000e+00 -1.0000e+00
  5000001  2    1    2    0    0 +5.7119304314e+01 +1.2842185508e+01 +8.5451793087e+02 1.4261389442e+03 1.1402823586e+03 0.0000e+00 0.0000e+00
  5000521  1    3    3    0    0 -3.8009245161e+02 +3.4813787651e+02 +1.6047901155e+02 5.3992940833e+02 1.0000000000e+01 0.0000e+00 -1.0000e+00
 -5000521  1    3    3    0    0 +4.3721175592e+02 -3.3529569100e+02 +6.9403891932e+02 8.8620953586e+02 1.0000000000e+01 0.0000e+00 1.0000e+00
       21  1    1    2  502  501 -5.7119304314e+01 -1.2842185508e+01 +2.6471618705e+01 6.4251717882e+01 0.0000000000e+00 0.0000e+00 1.0000e+00
<mgrwt>
<rscale>  1 0.11417843E+04</rscale>
<asrwt>0</asrwt>
<pdfrwt beam="1">  1        2 0.18241386E+00 0.11417843E+04</pdfrwt>
<pdfrwt beam="2">  1       -2 0.46877009E-01 0.11417843E+04</pdfrwt>
<totfact> 0.82455014E+01</totfact>
</mgrwt>
</event>
<event>
 6      1 +3.0741590e+01 1.00146500e+03 7.81860800e-03 9.30694000e-02
       -1 -1    0    0    0  501 -0.0000000000e+00 +0.0000000000e+00 +1.3425105627e+03 1.3425105627e+03 0.0000000000e+00 0.0000e+00 1.0000e+00
        1 -1    0    0  502    0 +0.0000000000e+00 -0.0000000000e+00 -5.2815590836e+02 5.2815590836e+02 0.0000000000e+00 0.0000e+00 -1.0000e+00
  5000001  2    1    2    0    0 -2.3885748095e+01 -2.7890484593e+00 +1.1552639232e+03 1.5289100705e+03 1.0011757906e+03 0.0000e+00 0.0000e+00
  5000521  1    3    3    0    0 +3.0004252565e+02 -3.6957198440e+02 +7.7299642030e+02 9.0787247709e+02 1.0000000000e+01 0.0000e+00 1.0000e+00
 -5000521  1    3    3    0    0 -3.2392827374e+02 +3.6678293594e+02 +3.8226750292e+02 6.2103759340e+02 1.0000000000e+01 0.0000e+00 -1.0000e+00
       21  1    1    2  502  501 +2.3885748095e+01 +2.7890484593e+00 -3.4090926886e+02 3.4175640060e+02 0.0000000000e+00 0.0000e+00 -1.0000e+00
<mgrwt>
<rscale>  1 0.10014646E+04</rscale>
<asrwt>0</asrwt>
<pdfrwt beam="1">  1        1 0.81254756E-01 0.10014646E+04</pdfrwt>
<pdfrwt beam="2">  1       -1 0.20654009E+00 0.10014646E+04</pdfrwt>
<totfact> 0.56001716E+00</totfact>
</mgrwt>
</event>
<event>
 6      1 +3.0741590e+01 1.03460400e+03 7.81860800e-03 9.27138600e-02
       -2 -1    0    0    0  501 -0.0000000000e+00 +0.0000000000e+00 +4.7273189986e+02 4.7273189986e+02 0.0000000000e+00 0.0000e+00 -1.0000e+00
        2 -1    0    0  502    0 +0.0000000000e+00 -0.0000000000e+00 -9.7662979521e+02 9.7662979521e+02 0.0000000000e+00 0.0000e+00 1.0000e+00
  5000001  2    1    2    0    0 -2.2987160904e+02 +1.4676469064e+02 -2.2402339571e+02 1.0585797014e+03 9.9800985528e+02 0.0000e+00 0.0000e+00
  5000521  1    3    3    0    0 +2.4257418749e+01 +4.3244117295e+02 +2.0883905082e+02 4.8094442462e+02 1.0000000000e+01 0.0000e+00 -1.0000e+00
 -5000521  1    3    3    0    0 -2.5412902779e+02 -2.8567648231e+02 -4.3286244653e+02 5.7763527673e+02 1.0000000000e+01 0.0000e+00 1.0000e+00
       21  1    1    2  502  501 +2.2987160904e+02 -1.4676469064e+02 -2.7987449964e+02 3.9078199371e+02 0.0000000000e+00 0.0000e+00 -1.0000e+00
<mgrwt>
<rscale>  1 0.10346035E+04</rscale>
<asrwt>0</asrwt>
<pdfrwt beam="1">  1        2 0.15025074E+00 0.10346035E+04</pdfrwt>
<pdfrwt beam="2">  1       -2 0.72727986E-01 0.10346035E+04</pdfrwt>
<totfact> 0.44315599E+01</totfact>
</mgrwt>
</event>
<event>
 6      1 +3.0741590e+01 1.01957400e+03 7.81860800e-03 9.28733300e-02
       21 -1    0    0  501  502 +0.0000000000e+00 +0.0000000000e+00 +5.5783419940e+02 5.5783419940e+02 0.0000000000e+00 0.0000e+00 1.0000e+00
        1 -1    0    0  502    0 -0.0000000000e+00 -0.0000000000e+00 -7.7464411996e+02 7.7464411996e+02 0.0000000000e+00 0.0000e+00 1.0000e+00
  5000001  2    1    2    0    0 -2.3937672492e+02 +5.7393702994e+01 -3.1549631981e+02 1.0672722505e+03 9.8941238887e+02 0.0000e+00 0.0000e+00
  5000521  1    3    3    0    0 -5.9170417865e+02 -1.1252351053e+02 -7.2666071476e+01 6.0675838140e+02 1.0000000000e+01 0.0000e+00 1.0000e+00
 -5000521  1    3    3    0    0 +3.5232745373e+02 +1.6991721353e+02 -2.4283024833e+02 4.6051386908e+02 1.0000000000e+01 0.0000e+00 -1.0000e+00
        1  1    1    2  501    0 +2.3937672492e+02 -5.7393702994e+01 +9.8686399252e+01 2.6520606889e+02 0.0000000000e+00 0.0000e+00 1.0000e+00
<mgrwt>
<rscale>  1 0.10195745E+04</rscale>
<asrwt>0</asrwt>
<pdfrwt beam="1">  1       21 0.85820646E-01 0.10195745E+04</pdfrwt>
<pdfrwt beam="2">  1        1 0.11917602E+00 0.10195745E+04</pdfrwt>
<totfact> 0.25330132E+02</totfact>
</mgrwt>
</event>
<event>
 6      1 +3.0741590e+01 1.03258200e+03 7.81860800e-03 9.27351400e-02
        1 -1    0    0  502    0 +0.0000000000e+00 +0.0000000000e+00 +9.4966079993e+02 9.4966079993e+02 0.0000000000e+00 0.0000e+00 -1.0000e+00
       -1 -1    0    0    0  501 -0.0000000000e+00 -0.0000000000e+00 -5.4827572954e+02 5.4827572954e+02 0.0000000000e+00 0.0000e+00 1.0000e+00
  5000001  2    1    2    0    0 -1.7206556641e+02 +1.9056179411e+02 +5.8079456341e+02 1.1847143676e+03 1.0001527140e+03 0.0000e+00 0.0000e+00
  5000521  1    3    3    0    0 -3.6824649691e+02 -1.5912985458e+02 +6.6329094172e+02 7.7523071822e+02 1.0000000000e+01 0.0000e+00 -1.0000e+00
 -5000521  1    3    3    0    0 +1.9618093050e+02 +3.4969164868e+02 -8.2496378312e+01 4.0948364935e+02 1.0000000000e+01 0.0000e+00 1.0000e+00
       21  1    1    2  502  501 +1.7206556641e+02 -1.9056179411e+02 -1.7940949302e+02 3.1322216190e+02 0.0000000000e+00 0.0000e+00 1.0000e+00
<mgrwt>
<rscale>  1 0.10325821E+04</rscale>
<asrwt>0</asrwt>
<pdfrwt beam="1">  1        1 0.14610166E+00 0.10325821E+04</pdfrwt>
<pdfrwt beam="2">  1       -1 0.84350112E-01 0.10325821E+04</pdfrwt>
<totfact> 0.23087658E+01</totfact>
</mgrwt>
</event>
<event>
 6      1 +3.0741590e+01 9.94353000e+02 7.81860800e-03 9.31476000e-02
       -1 -1    0    0    0  501 -0.0000000000e+00 +0.0000000000e+00 +1.3127216725e+02 1.3127216725e+02 0.0000000000e+00 0.0000e+00 1.0000e+00
        1 -1    0    0  502    0 +0.0000000000e+00 -0.0000000000e+00 -2.5815086761e+03 2.5815086761e+03 0.0000000000e+00 0.0000e+00 -1.0000e+00
  5000001  2    1    2    0    0 -4.8129811141e+01 +7.6558271119e+00 -2.4681001919e+03 2.6608751444e+03 9.9315803703e+02 0.0000e+00 0.0000e+00
  5000521  1    3    3    0    0 -3.6727124687e+02 +1.1394552073e+02 -3.6253298910e+02 5.2858482636e+02 1.0000000000e+01 0.0000e+00 1.0000e+00
 -5000521  1    3    3    0    0 +3.1914143573e+02 -1.0628969362e+02 -2.1055672028e+03 2.1322903181e+03 1.0000000000e+01 0.0000e+00 -1.0000e+00
       21  1    1    2  502  501 +4.8129811141e+01 -7.6558271119e+00 +1.7863683058e+01 5.1905698932e+01 0.0000000000e+00 0.0000e+00 -1.0000e+00
<mgrwt>
<rscale>  1 0.99435304E+03</rscale>
<asrwt>0</asrwt>
<pdfrwt beam="1">  1        1 0.39715512E+00 0.99435304E+03</pdfrwt>
<pdfrwt beam="2">  1       -1 0.20195721E-01 0.99435304E+03</pdfrwt>
<totfact> 0.24325027E+01</totfact>
</mgrwt>
</event>
<event>
 6      1 +3.0741590e+01 9.55704800e+02 7.81860800e-03 9.35850700e-02
       -2 -1    0    0    0  501 -0.0000000000e+00 +0.0000000000e+00 +4.0763614332e+02 4.0763614332e+02 0.0000000000e+00 0.0000e+00 -1.0000e+00
        2 -1    0    0  502    0 +0.0000000000e+00 -0.0000000000e+00 -1.0711452271e+03 1.0711452271e+03 0.0000000000e+00 0.0000e+00 1.0000e+00
  5000001  2    1    2    0    0 +7.6692411888e+00 -9.4850670319e+01 -8.4381158785e+02 1.2749077333e+03 9.5095544885e+02 0.0000e+00 0.0000e+00
  5000521  1    3    3    0    0 +1.3394993355e+02 +3.2067606302e+00 +1.8780968212e+02 2.3092281115e+02 1.0000000000e+01 0.0000e+00 -1.0000e+00
 -5000521  1    3    3    0    0 -1.2628069236e+02 -9.8057430949e+01 -1.0316212700e+03 1.0439849222e+03 1.0000000000e+01 0.0000e+00 1.0000e+00
       21  1    1    2  502  501 -7.6692411888e+00 +9.4850670319e+01 +1.8030250410e+02 2.0387363710e+02 0.0000000000e+00 0.0000e+00 -1.0000e+00
<mgrwt>
<rscale>  1 0.95570484E+03</rscale>
<asrwt>0</asrwt>
<pdfrwt beam="1">  1        2 0.16479157E+00 0.95570484E+03</pdfrwt>
<pdfrwt beam="2">  1       -2 0.62713253E-01 0.95570484E+03</pdfrwt>
<totfact> 0.53520455E+01</totfact>
</mgrwt>
</event>
<event>
 6      1 +3.0741590e+01 1.00387800e+03 7.81860800e-03 9.30430200e-02
        2 -1    0    0  502    0 +0.0000000000e+00 +0.0000000000e+00 +1.4292809605e+03 1.4292809605e+03 0.0000000000e+00 0.0000e+00 -1.0000e+00
       -2 -1    0    0    0  501 -0.0000000000e+00 -0.0000000000e+00 -2.6219944182e+02 2.6219944182e+02 0.0000000000e+00 0.0000e+00 1.0000e+00
  5000001  2    1    2    0    0 +7.4281874312e+01 -1.4629878941e+02 +7.8073956148e+02 1.2717409110e+03 9.9037848793e+02 0.0000e+00 0.0000e+00
  5000521  1    3    3    0    0 +3.8666414010e+02 -3.0479007496e+02 +9.4828011037e+01 5.0149625991e+02 1.0000000000e+01 0.0000e+00 1.0000e+00
 -5000521  1    3    3    0    0 -3.1238226579e+02 +1.5849128555e+02 +6.8591155044e+02 7.7024465114e+02 1.0000000000e+01 0.0000e+00 -1.0000e+00
       21  1    1    2  502  501 -7.4281874312e+01 +1.4629878941e+02 +3.8634195718e+02 4.1973949125e+02 0.0000000000e+00 0.0000e+00 1.0000e+00
<mgrwt>
<rscale>  1 0.10038778E+04</rscale>
<asrwt>0</asrwt>
<pdfrwt beam="1">  1        2 0.21988937E+00 0.10038778E+04</pdfrwt>
<pdfrwt beam="2">  1       -2 0.40338376E-01 0.10038778E+04</pdfrwt>
<totfact> 0.80850560E+01</totfact>
</mgrwt>
</event>
<event>
 6      1 +3.0741590e+01 1.00893900e+03 7.81860800e-03 9.29879500e-02
       -1 -1    0    0    0  501 -0.0000000000e+00 +0.0000000000e+00 +5.7598523025e+02 5.7598523025e+02 0.0000000000e+00 0.0000e+00 -1.0000e+00
        1 -1    0    0  502    0 +0.0000000000e+00 -0.0000000000e+00 -7.5418482284e+02 7.5418482284e+02 0.0000000000e+00 0.0000e+00 1.0000e+00
  5000001  2    1    2    0    0 -6.8909196843e+01 +1.8180518133e+01 +1.2687252406e+02 1.0168842331e+03 1.0064183511e+03 0.0000e+00 0.0000e+00
  5000521  1    3    3    0    0 -3.6873636760e+02 -3.6692076658e+02 +4.9562046886e+01 5.2264113331e+02 1.0000000000e+01 0.0000e+00 -1.0000e+00
 -5000521  1    3    3    0    0 +2.9982717075e+02 +3.8510128471e+02 +7.7310477169e+01 4.9424309979e+02 1.0000000000e+01 0.0000e+00 1.0000e+00
       21  1    1    2  502  501 +6.8909196843e+01 -1.8180518133e+01 -3.0507211665e+02 3.1328581999e+02 0.0000000000e+00 0.0000e+00 -1.0000e+00
<mgrwt>
<rscale>  1 0.10089385E+04</rscale>
<asrwt>0</asrwt>
<pdfrwt beam="1">  1        1 0.11602843E+00 0.10089385E+04</pdfrwt>
<pdfrwt beam="2">  1       -1 0.88613113E-01 0.10089385E+04</pdfrwt>
<totfact> 0.30408258E+01</totfact>
</mgrwt>
</event>
<event>
 6      1 +3.0741590e+01 9.98473800e+02 7.81860800e-03 9.31022000e-02
       -2 -1    0    0    0  501 -0.0000000000e+00 +0.0000000000e+00 +2.5510578526e+02 2.5510578526e+02 0.0000000000e+00 0.0000e+00 1.0000e+00
        2 -1    0    0  502    0 +0.0000000000e+00 -0.0000000000e+00 -1.0321374274e+03 1.0321374274e+03 0.0000000000e+00 0.0000e+00 -1.0000e+00
  5000001  2    1    2    0    0 -2.0548146823e+01 +1.7151895747e+01 -7.6525781561e+02 1.2580021994e+03 9.9811502116e+02 0.0000e+00 0.0000e+00
  5000521  1    3    3    0    0 +2.2057067507e+02 +1.1495175942e+02 +1.6059039139e+02 2.9623403502e+02 1.0000000000e+01 0.0000e+00 1.0000e+00
 -5000521  1    3    3    0    0 -2.4111882189e+02 -9.7799863674e+01 -9.2584820700e+02 9.6176816438e+02 1.0000000000e+01 0.0000e+00 -1.0000e+00
       21  1    1    2  502  501 +2.0548146823e+01 -1.7151895747e+01 -1.1773826528e+01 2.9241013264e+01 0.0000000000e+00 0.0000e+00 -1.0000e+00
<mgrwt>
<rscale>  1 0.99847384E+03</rscale>
<asrwt>0</asrwt>
<pdfrwt beam="1">  1        2 0.15879038E+00 0.99847384E+03</pdfrwt>
<pdfrwt beam="2">  1       -2 0.39247043E-01 0.99847384E+03</pdfrwt>
<totfact> 0.14710160E+02</totfact>
</mgrwt>
</event>
<event>
 6      1 +3.0741590e+01 1.00550100e+03 7.81860800e-03 9.30253200e-02
       -2 -1    0    0    0  501 -0.0000000000e+00 +0.0000000000e+00 +4.0154136987e+02 4.0154136987e+02 0.0000000000e+00 0.0000e+00 1.0000e+00
        2 -1    0    0  502    0 +0.0000000000e+00 -0.0000000000e+00 -6.9363879848e+02 6.9363879848e+02 0.0000000000e+00 0.0000e+00 -1.0000e+00
  5000001  2    1    2    0    0 +1.6800412399e+01 +2.5694976140e+01 -2.3847822587e+02 1.0333942107e+03 1.0050319621e+03 0.0000e+00 0.0000e+00
  5000521  1    3    3    0    0 -2.5876599786e+02 -1.1931293381e+02 +2.9836643513e+02 4.1269595034e+02 1.0000000000e+01 0.0000e+00 1.0000e+00
 -5000521  1    3    3    0    0 +2.7556641025e+02 +1.4500790996e+02 -5.3684466099e+02 6.2069826039e+02 1.0000000000e+01 0.0000e+00 -1.0000e+00
       21  1    1    2  502  501 -1.6800412399e+01 -2.5694976140e+01 -5.3619202746e+01 6.1785957618e+01 0.0000000000e+00 0.0000e+00 -1.0000e+00
<mgrwt>
<rscale>  1 0.10055007E+04</rscale>
<asrwt>0</asrwt>
<pdfrwt beam="1">  1        2 0.10671366E+00 0.10055007E+04</pdfrwt>
<pdfrwt beam="2">  1       -2 0.61775595E-01 0.10055007E+04</pdfrwt>
<totfact> 0.10072181E+02</totfact>
</mgrwt>
</event>
<event>
 6      1 +3.0741590e+01 1.04915100e+03 7.81860800e-03 9.25622100e-02
        1 -1    0    0  502    0 -0.0000000000e+00 +0.0000000000e+00 +5.3968310663e+02 5.3968310663e+02 0.0000000000e+00 0.0000e+00 -1.0000e+00
       21 -1    0    0  501  502 +0.0000000000e+00 -0.0000000000e+00 -8.5003802887e+02 8.5003802887e+02 0.0000000000e+00 0.0000e+00 1.0000e+00
  5000001  2    1    2    0    0 +8.2901392468e+01 -2.8795215531e+02 -2.9428086223e+02 1.0896420459e+03 1.0054498882e+03 0.0000e+00 0.0000e+00
  5000521  1    3    3    0    0 +7.1435363344e+01 +2.8663976514e+02 +1.7858490256e+02 3.4533741981e+02 1.0000000000e+01 0.0000e+00 -1.0000e+00
 -5000521  1    3    3    0    0 +1.1466029124e+01 -5.7459192046e+02 -4.7286576479e+02 7.4430462607e+02 1.0000000000e+01 0.0000e+00 1.0000e+00
        1  1    1    2  501    0 -8.2901392468e+01 +2.8795215531e+02 -1.6074060010e+01 3.0007908962e+02 0.0000000000e+00 0.0000e+00 -1.0000e+00
<mgrwt>
<rscale>  1 0.10491514E+04</rscale>
<asrwt>0</asrwt>
<pdfrwt beam="1">  1       21 0.13077508E+00 0.10491514E+04</pdfrwt>
<pdfrwt beam="2">  1        1 0.83028171E-01 0.10491514E+04</pdfrwt>
<totfact> 0.14965302E+02</totfact>
</mgrwt>
</event>
<event>
 6      1 +3.0741590e+01 1.07494700e+03 7.81860800e-03 9.22996000e-02
        4 -1    0    0  502    0 +0.0000000000e+00 +0.0000000000e+00 +2.6050104577e+02 2.6050104577e+02 0.0000000000e+00 0.0000e+00 -1.0000e+00
       -4 -1    0    0    0  501 -0.0000000000e+00 -0.0000000000e+00 -1.3691130875e+03 1.3691130875e+03 0.0000000000e+00 0.0000e+00 1.0000e+00
  5000001  2    1    2    0    0 +9.5847312873e+01 -4.7080969562e+01 -9.2949853456e+02 1.4210836235e+03 1.0696297556e+03 0.0000e+00 0.0000e+00
  5000521  1    3    3    0    0 +1.7754170263e+02 +2.2044080688e+00 -1.1588820733e+03 1.1724476856e+03 1.0000000000e+01 0.0000e+00 1.0000e+00
 -5000521  1    3    3    0    0 -8.1694389752e+01 -4.9285377631e+01 +2.2938353873e+02 2.4863593788e+02 1.0000000000e+01 0.0000e+00 -1.0000e+00
       21  1    1    2  502  501 -9.5847312873e+01 +4.7080969562e+01 -1.7911350718e+02 2.0853050984e+02 0.0000000000e+00 0.0000e+00 -1.0000e+00
<mgrwt>
<rscale>  1 0.10749470E+04</rscale>
<asrwt>0</asrwt>
<pdfrwt beam="1">  1        4 0.40077084E-01 0.10749470E+04</pdfrwt>
<pdfrwt beam="2">  1       -4 0.21063278E+00 0.10749470E+04</pdfrwt>
<totfact> 0.13465596E+00</totfact>
</mgrwt>
</event>
<event>
 6      1 +3.0741590e+01 9.99972400e+02 7.81860800e-03 9.30857500e-02
        1 -1    0    0  502    0 +0.0000000000e+00 +0.0000000000e+00 +1.8812623004e+03 1.8812623004e+03 0.0000000000e+00 0.0000e+00 -1.0000e+00
       -1 -1    0    0    0  501 -0.0000000000e+00 -0.0000000000e+00 -1.5910222812e+02 1.5910222812e+02 0.0000000000e+00 0.0000e+00 1.0000e+00
  5000001  2    1    2    0    0 -7.1407546638e+01 -2.3076285605e+01 +1.4746117279e+03 1.7816915004e+03 9.9715259706e+02 0.0000e+00 0.0000e+00
  5000521  1    3    3    0    0 -5.1237060213e+02 -1.2817039556e+02 +6.2231644306e+02 8.1628980119e+02 1.0000000000e+01 0.0000e+00 1.0000e+00
 -5000521  1    3    3    0    0 +4.4096305549e+02 +1.0509410996e+02 +8.5229528482e+02 9.6540169918e+02 1.0000000000e+01 0.0000e+00 -1.0000e+00
       21  1    1    2  502  501 +7.1407546638e+01 +2.3076285605e+01 +2.4754834439e+02 2.5867302813e+02 0.0000000000e+00 0.0000e+00 -1.0000e+00
<mgrwt>
<rscale>  1 0.99997243E+03</rscale>
<asrwt>0</asrwt>
<pdfrwt beam="1">  1        1 0.28942495E+00 0.99997243E+03</pdfrwt>
<pdfrwt beam="2">  1       -1 0.24477267E-01 0.99997243E+03</pdfrwt>
<totfact> 0.52444049E+01</totfact>
</mgrwt>
</event>
<event>
 6      1 +3.0741590e+01 9.99485300e+02 7.81860800e-03 9.30910900e-02
       -2 -1    0    0    0  501 -0.0000000000e+00 +0.0000000000e+00 +2.9000374940e+02 2.9000374940e+02 0.0000000000e+00 0.0000e+00 -1.0000e+00
        2 -1    0    0  502    0 +0.0000000000e+00 -0.0000000000e+00 -1.3390098237e+03 1.3390098237e+03 0.0000000000e+00 0.0000e+00 1.0000e+00
  5000001  2    1    2    0    0 +2.1204034581e+01 -1.0745372331e+01 -1.1509385885e+03 1.5243459488e+03 9.9920261371e+02 0.0000e+00 0.0000e+00
  5000521  1    3    3    0    0 +3.0907247541e+02 +6.2907071801e+01 -1.1838807709e+03 1.2252170316e+03 1.0000000000e+01 0.0000e+00 1.0000e+00
 -5000521  1    3    3    0    0 -2.8786844083e+02 -7.3652444132e+01 +3.2942182465e+01 2.9912891725e+02 1.0000000000e+01 0.0000e+00 -1.0000e+00
       21  1    1    2  502  501 -2.1204034581e+01 +1.0745372331e+01 +1.0193251420e+02 1.0466762422e+02 0.0000000000e+00 0.0000e+00 -1.0000e+00
<mgrwt>
<rscale>  1 0.99948534E+03</rscale>
<asrwt>0</asrwt>
<pdfrwt beam="1">  1        2 0.20600151E+00 0.99948534E+03</pdfrwt>
<pdfrwt beam="2">  1       -2 0.44615962E-01 0.99948534E+03</pdfrwt>
<totfact> 0.74612237E+01</totfact>
</mgrwt>
</event>
<event>
 6      1 +3.0741590e+01 1.00039400e+03 7.81860800e-03 9.30811200e-02
       21 -1    0    0  501  502 +0.0000000000e+00 +0.0000000000e+00 +3.6470127077e+02 3.6470127077e+02 0.0000000000e+00 0.0000e+00 -1.0000e+00
       -4 -1    0    0    0  501 -0.0000000000e+00 -0.0000000000e+00 -1.0508785029e+03 1.0508785029e+03 0.0000000000e+00 0.0000e+00 1.0000e+00
  5000001  2    1    2    0    0 -5.7387491087e-02 +2.1510230155e+01 -8.1167209640e+02 1.2882547790e+03 1.0001630318e+03 0.0000e+00 0.0000e+00
  5000521  1    3    3    0    0 +3.3548343286e+01 +2.4775687157e+02 -9.7527422326e+02 1.0068608490e+03 1.0000000000e+01 0.0000e+00 1.0000e+00
 -5000521  1    3    3    0    0 -3.3605730777e+01 -2.2624664142e+02 +1.6360212686e+02 2.8139392994e+02 1.0000000000e+01 0.0000e+00 -1.0000e+00
       -4  1    1    2    0  502 +5.7387491087e-02 -2.1510230155e+01 +1.2549486431e+02 1.2732499465e+02 0.0000000000e+00 0.0000e+00 1.0000e+00
<mgrwt>
<rscale>  1 0.10003943E+04</rscale>
<asrwt>0</asrwt>
<pdfrwt beam="1">  1       21 0.56107888E-01 0.10003943E+04</pdfrwt>
<pdfrwt beam="2">  1       -4 0.16167362E+00 0.10003943E+04</pdfrwt>
<totfact> 0.28466053E+01</totfact>
</mgrwt>
</event>
<event>
 6      1 +3.0741590e+01 1.00300800e+03 7.81860800e-03 9.30525200e-02
        3 -1    0    0  502    0 +0.0000000000e+00 +0.0000000000e+00 +4.2894944678e+02 4.2894944678e+02 0.0000000000e+00 0.0000e+00 -1.0000e+00
       -3 -1    0    0    0  501 -0.0000000000e+00 -0.0000000000e+00 -9.8157392693e+02 9.8157392693e+02 0.0000000000e+00 0.0000e+00 1.0000e+00
  5000001  2    1    2    0    0 -2.0517040162e+01 +4.0696606046e+01 -7.2153533953e+02 1.2355718344e+03 1.0019717307e+03 0.0000e+00 0.0000e+00
  5000521  1    3    3    0    0 -1.0256544466e+02 -3.9603090692e+02 -6.7407253471e+02 7.8856447532e+02 1.0000000000e+01 0.0000e+00 1.0000e+00
 -5000521  1    3    3    0    0 +8.2048404501e+01 +4.3672751297e+02 -4.7462804818e+01 4.4700735912e+02 1.0000000000e+01 0.0000e+00 -1.0000e+00
       21  1    1    2  502  501 +2.0517040162e+01 -4.0696606046e+01 +1.6891085937e+02 1.7495153928e+02 0.0000000000e+00 0.0000e+00 -1.0000e+00
<mgrwt>
<rscale>  1 0.10030077E+04</rscale>
<asrwt>0</asrwt>
<pdfrwt beam="1">  1        3 0.65992224E-01 0.10030077E+04</pdfrwt>
<pdfrwt beam="2">  1       -3 0.15101137E+00 0.10030077E+04</pdfrwt>
<totfact> 0.18181517E+00</totfact>
</mgrwt>
</event>
<event>
 6      1 +3.0741590e+01 9.93568500e+02 7.81860800e-03 9.31562700e-02
       -1 -1    0    0    0  501 -0.0000000000e+00 +0.0000000000e+00 +3.1821646587e+02 3.1821646587e+02 0.0000000000e+00 0.0000e+00 1.0000e+00
        1 -1    0    0  502    0 +0.0000000000e+00 -0.0000000000e+00 -9.3128911890e+02 9.3128911890e+02 0.0000000000e+00 0.0000e+00 -1.0000e+00
  5000001  2    1    2    0    0 -4.9496403462e+01 +1.0367112835e+01 -4.7266458223e+02 1.1002681989e+03 9.9228067165e+02 0.0000e+00 0.0000e+00
  5000521  1    3    3    0    0 -4.5795101007e+02 -2.5685287664e+01 -5.1288656389e+02 6.8813624308e+02 1.0000000000e+01 0.0000e+00 -1.0000e+00
 -5000521  1    3    3    0    0 +4.0845460661e+02 +3.6052400500e+01 +4.0221981654e+01 4.1213195587e+02 1.0000000000e+01 0.0000e+00 1.0000e+00
       21  1    1    2  502  501 +4.9496403462e+01 -1.0367112835e+01 -1.4040807080e+02 1.4923738583e+02 0.0000000000e+00 0.0000e+00 -1.0000e+00
<mgrwt>
<rscale>  1 0.99356847E+03</rscale>
<asrwt>0</asrwt>
<pdfrwt beam="1">  1        1 0.14327525E+00 0.99356847E+03</pdfrwt>
<pdfrwt beam="2">  1       -1 0.48956380E-01 0.99356847E+03</pdfrwt>
<totfact> 0.71892002E+01</totfact>
</mgrwt>
</event>
<event>
 6      1 +3.0741590e+01 9.89889500e+02 7.81860800e-03 9.31970400e-02
        2 -1    0    0  502    0 +0.0000000000e+00 +0.0000000000e+00 +2.3839754040e+03 2.3839754040e+03 0.0000000000e+00 0.0000e+00 -1.0000e+00
       -2 -1    0    0    0  501 -0.0000000000e+00 -0.0000000000e+00 -1.3569517821e+02 1.3569517821e+02 0.0000000000e+00 0.0000e+00 1.0000e+00
  5000001  2    1    2    0    0 -2.7688709720e+01 +4.9987835753e+01 +2.2544450703e+03 2.4621949032e+03 9.8823869500e+02 0.0000e+00 0.0000e+00
  5000521  1    3    3    0    0 +2.2386831921e+02 -5.6850978851e+01 +4.4553076780e+01 2.3544433481e+02 1.0000000000e+01 0.0000e+00 1.0000e+00
 -5000521  1    3    3    0    0 -2.5155702893e+02 +1.0683881460e+02 +2.2098919935e+03 2.2267505684e+03 1.0000000000e+01 0.0000e+00 -1.0000e+00
       21  1    1    2  502  501 +2.7688709720e+01 -4.9987835753e+01 -6.1648444523e+00 5.7475678999e+01 0.0000000000e+00 0.0000e+00 -1.0000e+00
<mgrwt>
<rscale>  1 0.98988947E+03</rscale>
<asrwt>0</asrwt>
<pdfrwt beam="1">  1        2 0.36676542E+00 0.98988947E+03</pdfrwt>
<pdfrwt beam="2">  1       -2 0.20876183E-01 0.98988947E+03</pdfrwt>
<totfact> 0.81192528E+01</totfact>
</mgrwt>
</event>
<event>
 6      1 +3.0741590e+01 1.00302100e+03 7.81860800e-03 9.30523800e-02
        1 -1    0    0  502    0 +0.0000000000e+00 +0.0000000000e+00 +1.8761988603e+03 1.8761988603e+03 0.0000000000e+00 0.0000e+00 1.0000e+00
       -1 -1    0    0    0  501 -0.0000000000e+00 -0.0000000000e+00 -1.5315565998e+02 1.5315565998e+02 0.0000000000e+00 0.0000e+00 -1.0000e+00
  5000001  2    1    2    0    0 -5.0467748825e+01 -4.4134146374e+01 +1.6427203414e+03 1.9247286238e+03 1.0007773672e+03 0.0000e+00 0.0000e+00
  5000521  1    3    3    0    0 -1.3504452799e+02 -4.9852596940e+01 +1.7675913295e+03 1.7734715713e+03 1.0000000000e+01 0.0000e+00 1.0000e+00
 -5000521  1    3    3    0    0 +8.4576779166e+01 +5.7184505666e+00 -1.2487098815e+02 1.5125705251e+02 1.0000000000e+01 0.0000e+00 -1.0000e+00
       21  1    1    2  502  501 +5.0467748825e+01 +4.4134146374e+01 +8.0322858985e+01 1.0462589652e+02 0.0000000000e+00 0.0000e+00 -1.0000e+00
<mgrwt>
<rscale>  1 0.10030205E+04</rscale>
<asrwt>0</asrwt>
<pdfrwt beam="1">  1        1 0.28864596E+00 0.10030205E+04</pdfrwt>
<pdfrwt beam="2">  1       -1 0.23562411E-01 0.10030205E+04</pdfrwt>
<totfact> 0.56393778E+01</totfact>
</mgrwt>
</event>
<event>
 6      1 +3.0741590e+01 1.01524100e+03 7.81860800e-03 9.29198400e-02
        2 -1    0    0  502    0 -0.0000000000e+00 +0.0000000000e+00 +1.2992073040e+03 1.2992073040e+03 0.0000000000e+00 0.0000e+00 1.0000e+00
       21 -1    0    0  501  502 +0.0000000000e+00 -0.0000000000e+00 -2.1069909869e+02 2.1069909869e+02 0.0000000000e+00 0.0000e+00 -1.0000e+00
  5000001  2    1    2    0    0 -2.6897210231e+01 -2.9899090063e+00 +1.0781755378e+03 1.4809380839e+03 1.0148806426e+03 0.0000e+00 0.0000e+00
  5000521  1    3    3    0    0 -9.0027228174e-01 -4.8066685678e+02 +7.8271947291e+02 9.1858108568e+02 1.0000000000e+01 0.0000e+00 1.0000e+00
 -5000521  1    3    3    0    0 -2.5996937949e+01 +4.7767694778e+02 +2.9545606488e+02 5.6235699826e+02 1.0000000000e+01 0.0000e+00 -1.0000e+00
        2  1    1    2  501    0 +2.6897210231e+01 +2.9899090063e+00 +1.0332667544e+01 2.8968318775e+01 0.0000000000e+00 0.0000e+00 1.0000e+00
<mgrwt>
<rscale>  1 0.10152414E+04</rscale>
<asrwt>0</asrwt>
<pdfrwt beam="1">  1       21 0.32415247E-01 0.10152414E+04</pdfrwt>
<pdfrwt beam="2">  1        2 0.19987804E+00 0.10152414E+04</pdfrwt>
<totfact> 0.17293287E+03</totfact>
</mgrwt>
</event>
<event>
 6      1 +3.0741590e+01 1.02861000e+03 7.81860800e-03 9.27771100e-02
        2 -1    0    0  502    0 +0.0000000000e+00 +0.0000000000e+00 +1.0512183211e+03 1.0512183211e+03 0.0000000000e+00 0.0000e+00 1.0000e+00
       -2 -1    0    0    0  501 -0.0000000000e+00 -0.0000000000e+00 -4.5769927221e+02 4.5769927221e+02 0.0000000000e+00 0.0000e+00 -1.0000e+00
  5000001  2    1    2    0    0 +2.3241557747e+02 +1.0566615488e+02 +2.1259744016e+02 1.0503506855e+03 9.9642187552e+02 0.0000e+00 0.0000e+00
  5000521  1    3    3    0    0 +3.4881630252e+02 +4.1693299548e+02 -1.4436959335e+02 5.6253756773e+02 1.0000000000e+01 0.0000e+00 -1.0000e+00
 -5000521  1    3    3    0    0 -1.1640072505e+02 -3.1126684060e+02 +3.5696703351e+02 4.8781311776e+02 1.0000000000e+01 0.0000e+00 1.0000e+00
       21  1    1    2  502  501 -2.3241557747e+02 -1.0566615488e+02 +3.8092160872e+02 4.5856690780e+02 0.0000000000e+00 0.0000e+00 1.0000e+00
<mgrwt>
<rscale>  1 0.10286102E+04</rscale>
<asrwt>0</asrwt>
<pdfrwt beam="1">  1        2 0.16172590E+00 0.10286102E+04</pdfrwt>
<pdfrwt beam="2">  1       -2 0.70415273E-01 0.10286102E+04</pdfrwt>
<totfact> 0.42642834E+01</totfact>
</mgrwt>
</event>
<event>
 6      1 +3.0741590e+01 1.01144900e+03 7.81860800e-03 9.29607600e-02
        1 -1    0    0  502    0 +0.0000000000e+00 +0.0000000000e+00 +6.2504110310e+02 6.2504110310e+02 0.0000000000e+00 0.0000e+00 1.0000e+00
       -1 -1    0    0    0  501 -0.0000000000e+00 -0.0000000000e+00 -4.9252345835e+02 4.9252345835e+02 0.0000000000e+00 0.0000e+00 -1.0000e+00
  5000001  2    1    2    0    0 +1.7807526659e+01 +2.0432398541e+01 +3.0394114990e+01 1.0119056468e+03 1.0110858741e+03 0.0000e+00 0.0000e+00
  5000521  1    3    3    0    0 -3.1619548841e+02 -3.3821654061e+01 -3.6973805660e+02 4.8778040313e+02 1.0000000000e+01 0.0000e+00 -1.0000e+00
 -5000521  1    3    3    0    0 +3.3400301507e+02 +5.4254052601e+01 +4.0013217159e+02 5.2412524366e+02 1.0000000000e+01 0.0000e+00 1.0000e+00
       21  1    1    2  502  501 -1.7807526659e+01 -2.0432398541e+01 +1.0212352976e+02 1.0565891466e+02 0.0000000000e+00 0.0000e+00 1.0000e+00
<mgrwt>
<rscale>  1 0.10114491E+04</rscale>
<asrwt>0</asrwt>
<pdfrwt beam="1">  1        1 0.96160170E-01 0.10114491E+04</pdfrwt>
<pdfrwt beam="2">  1       -1 0.75772840E-01 0.10114491E+04</pdfrwt>
<totfact> 0.56585858E+01</totfact>
</mgrwt>
</event>
<event>
 6      1 +3.0741590e+01 9.96941500e+02 7.81860800e-03 9.31190600e-02
       -2 -1    0    0    0  501 -0.0000000000e+00 +0.0000000000e+00 +9.0896897819e+02 9.0896897819e+02 0.0000000000e+00 0.0000e+00 -1.0000e+00
        2 -1    0    0  502    0 +0.0000000000e+00 -0.0000000000e+00 -2.9972769249e+02 2.9972769249e+02 0.0000000000e+00 0.0000e+00 1.0000e+00
  5000001  2    1    2    0    0 -2.3996739296e+01 +4.2389657848e+00 +5.3681760849e+02 1.1322833122e+03 9.9664363844e+02 0.0000e+00 0.0000e+00
  5000521  1    3    3    0    0 +1.8576981452e+02 +4.1603045082e+02 +4.5979431018e+01 4.5804570522e+02 1.0000000000e+01 0.0000e+00 1.0000e+00
 -5000521  1    3    3    0    0 -2.0976655382e+02 -4.1179148503e+02 +4.9083817747e+02 6.7423760701e+02 1.0000000000e+01 0.0000e+00 -1.0000e+00
       21  1    1    2  502  501 +2.3996739296e+01 -4.2389657848e+00 +7.2423677216e+01 7.6413358448e+01 0.0000000000e+00 0.0000e+00 -1.0000e+00
<mgrwt>
<rscale>  1 0.99694150E+03</rscale>
<asrwt>0</asrwt>
<pdfrwt beam="1">  1        2 0.46111953E-01 0.99694150E+03</pdfrwt>
<pdfrwt beam="2">  1       -2 0.13984138E+00 0.99694150E+03</pdfrwt>
<totfact> 0.39484767E+01</totfact>
</mgrwt>
</event>
<event>
 6      1 +3.0741590e+01 1.00454700e+03 7.81860800e-03 9.30357100e-02
       -1 -1    0    0    0  501 -0.0000000000e+00 +0.0000000000e+00 +4.6390857917e+02 4.6390857917e+02 0.0000000000e+00 0.0000e+00 1.0000e+00
        1 -1    0    0  502    0 +0.0000000000e+00 -0.0000000000e+00 -6.6904168951e+02 6.6904168951e+02 0.0000000000e+00 0.0000e+00 -1.0000e+00
  5000001  2    1    2    0    0 +6.1496554382e+00 -8.6405398521e+01 -2.5029594911e+02 1.0352599766e+03 1.0008053986e+03 0.0000e+00 0.0000e+00
  5000521  1    3    3    0    0 -2.6354027835e+02 +3.7154280704e+02 -2.1140836833e+02 5.0228580905e+02 1.0000000000e+01 0.0000e+00 -1.0000e+00
 -5000521  1    3    3    0    0 +2.6968993379e+02 -4.5794820556e+02 -3.8887580777e+01 5.3297416758e+02 1.0000000000e+01 0.0000e+00 1.0000e+00
       21  1    1    2  502  501 -6.1496554382e+00 +8.6405398521e+01 +4.5162838768e+01 9.7690292052e+01 0.0000000000e+00 0.0000e+00 1.0000e+00
<mgrwt>
<rscale>  1 0.10045472E+04</rscale>
<asrwt>0</asrwt>
<pdfrwt beam="1">  1        1 0.10292949E+00 0.10045472E+04</pdfrwt>
<pdfrwt beam="2">  1       -1 0.71370551E-01 0.10045472E+04</pdfrwt>
<totfact> 0.57974677E+01</totfact>
</mgrwt>
</event>
<event>
 6      1 +3.0741590e+01 1.01046100e+03 7.81860800e-03 9.29714500e-02
        1 -1    0    0  502    0 +0.0000000000e+00 +0.0000000000e+00 +5.2788612413e+02 5.2788612413e+02 0.0000000000e+00 0.0000e+00 1.0000e+00
       -1 -1    0    0    0  501 -0.0000000000e+00 -0.0000000000e+00 -6.5058535729e+02 6.5058535729e+02 0.0000000000e+00 0.0000e+00 -1.0000e+00
  5000001  2    1    2    0    0 +2.9693987185e+01 +2.3408593825e+01 -2.5394929103e+02 1.0418835141e+03 1.0097530982e+03 0.0000e+00 0.0000e+00
  5000521  1    3    3    0    0 +4.3020039662e+02 -9.8144528477e+01 +1.4400046115e+02 4.6426378551e+02 1.0000000000e+01 0.0000e+00 1.0000e+00
 -5000521  1    3    3    0    0 -4.0050640944e+02 +1.2155312230e+02 -3.9794975218e+02 5.7761972854e+02 1.0000000000e+01 0.0000e+00 -1.0000e+00
       21  1    1    2  502  501 -2.9693987185e+01 -2.3408593825e+01 +1.3125005787e+02 1.3658796737e+02 0.0000000000e+00 0.0000e+00 1.0000e+00
<mgrwt>
<rscale>  1 0.10104608E+04</rscale>
<asrwt>0</asrwt>
<pdfrwt beam="1">  1        1 0.81213251E-01 0.10104608E+04</pdfrwt>
<pdfrwt beam="2">  1       -1 0.10009005E+00 0.10104608E+04</pdfrwt>
<totfact> 0.39175393E+01</totfact>
</mgrwt>
</event>
<event>
 5      1 +3.0741590e+01 3.87622700e+02 7.81860800e-03 1.04815200e-01
        2 -1    0    0  502    0 +0.0000000000e+00 +0.0000000000e+00 +7.4425623555e+01 7.4425623555e+01 0.0000000000e+00 0.0000e+00 1.0000e+00
       -2 -1    0    0    0  501 -0.0000000000e+00 -0.0000000000e+00 -6.3756050704e+02 6.3756050704e+02 0.0000000000e+00 0.0000e+00 -1.0000e+00
  5000521  1    1    2    0    0 -1.8224239123e+02 +5.3616368675e+01 -4.2172531873e+02 4.6264375994e+02 1.0000000000e+01 0.0000e+00 -1.0000e+00
 -5000521  1    1    2    0    0 +1.3498431341e+02 -6.0502029052e+01 -7.1304279911e+01 1.6451614121e+02 1.0000000000e+01 0.0000e+00 1.0000e+00
       21  1    1    2  502  501 +4.7258077829e+01 +6.8856603771e+00 -7.0105284850e+01 8.4826229450e+01 0.0000000000e+00 0.0000e+00 1.0000e+00
<mgrwt>
<rscale>  1 0.38762270E+03</rscale>
<asrwt>0</asrwt>
<pdfrwt beam="1">  1        2 0.11450096E-01 0.38762270E+03</pdfrwt>
<pdfrwt beam="2">  1       -2 0.98086230E-01 0.38762270E+03</pdfrwt>
<totfact> 0.48783995E+02</totfact>
</mgrwt>
</event>
<event>
 6      1 +3.0741590e+01 9.90208500e+02 7.81860800e-03 9.31935000e-02
        2 -1    0    0  502    0 -0.0000000000e+00 +0.0000000000e+00 +8.7232491521e+02 8.7232491521e+02 0.0000000000e+00 0.0000e+00 1.0000e+00
       21 -1    0    0  501  502 +0.0000000000e+00 -0.0000000000e+00 -6.1851169539e+02 6.1851169539e+02 0.0000000000e+00 0.0000e+00 1.0000e+00
  5000001  2    1    2    0    0 -3.4621774689e+02 +1.3114672187e+02 +4.3154668234e+02 1.0801598830e+03 9.1839351197e+02 0.0000e+00 0.0000e+00
  5000521  1    3    3    0    0 -6.2702033212e+02 +4.6428521204e+01 +9.8877544243e+01 6.3654290761e+02 1.0000000000e+01 0.0000e+00 1.0000e+00
 -5000521  1    3    3    0    0 +2.8080258523e+02 +8.4718200662e+01 +3.3266913810e+02 4.4361697537e+02 1.0000000000e+01 0.0000e+00 -1.0000e+00
        2  1    1    2  501    0 +3.4621774689e+02 -1.3114672187e+02 -1.7773346252e+02 4.1067672763e+02 0.0000000000e+00 0.0000e+00 1.0000e+00
<mgrwt>
<rscale>  1 0.99020848E+03</rscale>
<asrwt>0</asrwt>
<pdfrwt beam="1">  1       21 0.95155645E-01 0.99020848E+03</pdfrwt>
<pdfrwt beam="2">  1        2 0.13420383E+00 0.99020848E+03</pdfrwt>
<totfact> 0.29611929E+02</totfact>
</mgrwt>
</event>
<event>
 6      1 +3.0741590e+01 1.00939500e+03 7.81860800e-03 9.29830000e-02
       -2 -1    0    0    0  501 -0.0000000000e+00 +0.0000000000e+00 +1.6267318661e+02 1.6267318661e+02 0.0000000000e+00 0.0000e+00 1.0000e+00
        2 -1    0    0  502    0 +0.0000000000e+00 -0.0000000000e+00 -1.8815033460e+03 1.8815033460e+03 0.0000000000e+00 0.0000e+00 -1.0000e+00
  5000001  2    1    2    0    0 +8.6731933731e+00 +9.6283481293e+01 -1.5524837065e+03 1.8517788314e+03 1.0047554171e+03 0.0000e+00 0.0000e+00
  5000521  1    3    3    0    0 -2.5933826140e+02 -1.5785003305e+02 -1.4309338712e+03 1.4628208061e+03 1.0000000000e+01 0.0000e+00 -1.0000e+00
 -5000521  1    3    3    0    0 +2.6801145478e+02 +2.5413351435e+02 -1.2154983527e+02 3.8895802532e+02 1.0000000000e+01 0.0000e+00 1.0000e+00
       21  1    1    2  502  501 -8.6731933731e+00 -9.6283481293e+01 -1.6634645291e+02 1.9239770126e+02 0.0000000000e+00 0.0000e+00 -1.0000e+00
<mgrwt>
<rscale>  1 0.10093955E+04</rscale>
<asrwt>0</asrwt>
<pdfrwt beam="1">  1        2 0.28946205E+00 0.10093955E+04</pdfrwt>
<pdfrwt beam="2">  1       -2 0.25026645E-01 0.10093955E+04</pdfrwt>
<totfact> 0.11136424E+02</totfact>
</mgrwt>
</event>
<event>
 6      1 +3.0741590e+01 1.00936600e+03 7.81860800e-03 9.29833200e-02
       -2 -1    0    0    0  501 -0.0000000000e+00 +0.0000000000e+00 +2.3721272466e+02 2.3721272466e+02 0.0000000000e+00 0.0000e+00 1.0000e+00
        2 -1    0    0  502    0 +0.0000000000e+00 -0.0000000000e+00 -1.2000935379e+03 1.2000935379e+03 0.0000000000e+00 0.0000e+00 -1.0000e+00
  5000001  2    1    2    0    0 -2.8927206161e+01 -2.8529916820e-01 -8.4636193967e+02 1.3172499735e+03 1.0089509874e+03 0.0000e+00 0.0000e+00
  5000521  1    3    3    0    0 +4.8920050366e+02 -2.3986185516e+01 -4.3576292420e+02 6.5565371652e+02 1.0000000000e+01 0.0000e+00 1.0000e+00
 -5000521  1    3    3    0    0 -5.1812770982e+02 +2.3700886348e+01 -4.1059901547e+02 6.6159625695e+02 1.0000000000e+01 0.0000e+00 -1.0000e+00
       21  1    1    2  502  501 +2.8927206161e+01 +2.8529916820e-01 -1.1651887362e+02 1.2005628914e+02 0.0000000000e+00 0.0000e+00 -1.0000e+00
<mgrwt>
<rscale>  1 0.10093656E+04</rscale>
<asrwt>0</asrwt>
<pdfrwt beam="1">  1        2 0.18462977E+00 0.10093656E+04</pdfrwt>
<pdfrwt beam="2">  1       -2 0.36494265E-01 0.10093656E+04</pdfrwt>
<totfact> 0.13345488E+02</totfact>
</mgrwt>
</event>
<event>
 6      1 +3.0741590e+01 9.91690100e+02 7.81860800e-03 9.31770600e-02
        2 -1    0    0  502    0 +0.0000000000e+00 +0.0000000000e+00 +4.2464327074e+02 4.2464327074e+02 0.0000000000e+00 0.0000e+00 1.0000e+00
       -2 -1    0    0    0  501 -0.0000000000e+00 -0.0000000000e+00 -6.9944433459e+02 6.9944433459e+02 0.0000000000e+00 0.0000e+00 -1.0000e+00
  5000001  2    1    2    0    0 +3.1884585295e+01 -1.3423347047e+01 -1.6041014365e+02 1.0045798832e+03 9.9108653230e+02 0.0000e+00 0.0000e+00
  5000521  1    3    3    0    0 +1.9603044200e+02 -3.7117677671e+02 +2.0513678870e+02 4.6731278159e+02 1.0000000000e+01 0.0000e+00 1.0000e+00
 -5000521  1    3    3    0    0 -1.6414585671e+02 +3.5775342966e+02 -3.6554693235e+02 5.3726710160e+02 1.0000000000e+01 0.0000e+00 -1.0000e+00
       21  1    1    2  502  501 -3.1884585295e+01 +1.3423347047e+01 -1.1439092020e+02 1.1950772213e+02 0.0000000000e+00 0.0000e+00 1.0000e+00
<mgrwt>
<rscale>  1 0.99169014E+03</rscale>
<asrwt>0</asrwt>
<pdfrwt beam="1">  1        2 0.65329734E-01 0.99169014E+03</pdfrwt>
<pdfrwt beam="2">  1       -2 0.10760682E+00 0.99169014E+03</pdfrwt>
<totfact> 0.51385616E+01</totfact>
</mgrwt>
</event>
<event>
 6      1 +3.0741590e+01 1.00297400e+03 7.81860800e-03 9.30528900e-02
       -1 -1    0    0    0  501 -0.0000000000e+00 +0.0000000000e+00 +1.3911633126e+02 1.3911633126e+02 0.0000000000e+00 0.0000e+00 -1.0000e+00
        1 -1    0    0  502    0 +0.0000000000e+00 -0.0000000000e+00 -2.1432925452e+03 2.1432925452e+03 0.0000000000e+00 0.0000e+00 1.0000e+00
  5000001  2    1    2    0    0 +1.7938005122e+01 -1.0223187253e+01 -2.0207276013e+03 2.2559469413e+03 1.0027613266e+03 0.0000e+00 0.0000e+00
  5000521  1    3    3    0    0 -4.0408147099e+02 +2.4890833713e+02 -7.0358010743e+02 8.4874151723e+02 1.0000000000e+01 0.0000e+00 -1.0000e+00
 -5000521  1    3    3    0    0 +4.2201947611e+02 -2.5913152438e+02 -1.3171474938e+03 1.4072054241e+03 1.0000000000e+01 0.0000e+00 1.0000e+00
       21  1    1    2  502  501 -1.7938005122e+01 +1.0223187253e+01 +1.6551387357e+01 2.6461935092e+01 0.0000000000e+00 0.0000e+00 1.0000e+00
<mgrwt>
<rscale>  1 0.10029739E+04</rscale>
<asrwt>0</asrwt>
<pdfrwt beam="1">  1        1 0.32973730E+00 0.10029739E+04</pdfrwt>
<pdfrwt beam="2">  1       -1 0.21402514E-01 0.10029739E+04</pdfrwt>
<totfact> 0.43860140E+01</totfact>
</mgrwt>
</event>
<event>
 5      1 +3.0741590e+01 7.39059300e+02 7.81860800e-03 9.65267300e-02
       -2 -1    0    0    0  501 -0.0000000000e+00 +0.0000000000e+00 +6.2723709508e+01 6.2723709508e+01 0.0000000000e+00 0.0000e+00 -1.0000e+00
        2 -1    0    0  502    0 +0.0000000000e+00 -0.0000000000e+00 -2.6131176390e+03 2.6131176390e+03 0.0000000000e+00 0.0000e+00 1.0000e+00
  5000521  1    1    2    0    0 -3.1786358667e+02 +1.0213736332e+02 -6.5878787485e+02 7.3862762253e+02 1.0000000000e+01 0.0000e+00 -1.0000e+00
 -5000521  1    1    2    0    0 +3.5396020929e+02 -7.7140429634e+01 -1.5002145739e+03 1.5433671771e+03 1.0000000000e+01 0.0000e+00 1.0000e+00
       21  1    1    2  502  501 -3.6096622622e+01 -2.4996933681e+01 -3.9139148074e+02 3.9384654886e+02 0.0000000000e+00 0.0000e+00 -1.0000e+00
<mgrwt>
<rscale>  1 0.73905933E+03</rscale>
<asrwt>0</asrwt>
<pdfrwt beam="1">  1        2 0.40201812E+00 0.73905933E+03</pdfrwt>
<pdfrwt beam="2">  1       -2 0.96498009E-02 0.73905933E+03</pdfrwt>
<totfact> 0.22672087E+02</totfact>
</mgrwt>
</event>
<event>
 6      1 +3.0741590e+01 1.02138700e+03 7.81860800e-03 9.28539400e-02
       -2 -1    0    0    0  501 -0.0000000000e+00 +0.0000000000e+00 +2.0237275583e+03 2.0237275583e+03 0.0000000000e+00 0.0000e+00 1.0000e+00
        2 -1    0    0  502    0 +0.0000000000e+00 -0.0000000000e+00 -1.5395141195e+02 1.5395141195e+02 0.0000000000e+00 0.0000e+00 -1.0000e+00
  5000001  2    1    2    0    0 +4.0881190915e+01 +8.5105317174e+01 +1.6919214026e+03 1.9763173636e+03 1.0170143077e+03 0.0000e+00 0.0000e+00
  5000521  1    3    3    0    0 +1.1960121310e+02 +5.4203528271e+02 +8.5328445003e+02 1.0179887281e+03 1.0000000000e+01 0.0000e+00 1.0000e+00
 -5000521  1    3    3    0    0 -7.8720022182e+01 -4.5692996554e+02 +8.3863695258e+02 9.5832863545e+02 1.0000000000e+01 0.0000e+00 -1.0000e+00
       21  1    1    2  502  501 -4.0881190915e+01 -8.5105317174e+01 +1.7785474376e+02 2.0136160672e+02 0.0000000000e+00 0.0000e+00 1.0000e+00
<mgrwt>
<rscale>  1 0.10213874E+04</rscale>
<asrwt>0</asrwt>
<pdfrwt beam="1">  1        2 0.23684834E-01 0.10213874E+04</pdfrwt>
<pdfrwt beam="2">  1       -2 0.31134268E+00 0.10213874E+04</pdfrwt>
<totfact> 0.63994373E+00</totfact>
</mgrwt>
</event>
<event>
 6      1 +3.0741590e+01 1.02924500e+03 7.81860800e-03 9.27703800e-02
        2 -1    0    0  502    0 +0.0000000000e+00 +0.0000000000e+00 +8.0248267671e+02 8.0248267671e+02 0.0000000000e+00 0.0000e+00 -1.0000e+00
       -2 -1    0    0    0  501 -0.0000000000e+00 -0.0000000000e+00 -3.5396909919e+02 3.5396909919e+02 0.0000000000e+00 0.0000e+00 1.0000e+00
  5000001  2    1    2    0    0 -9.5817233275e+00 -2.8136254170e+01 +4.1023571009e+02 1.1079888689e+03 1.0288160854e+03 0.0000e+00 0.0000e+00
  5000521  1    3    3    0    0 -3.4933008934e+02 +5.0608862167e+01 -1.9943430844e+02 4.0554507965e+02 1.0000000000e+01 0.0000e+00 1.0000e+00
 -5000521  1    3    3    0    0 +3.3974836601e+02 -7.8745116337e+01 +6.0967001853e+02 7.0244378924e+02 1.0000000000e+01 0.0000e+00 -1.0000e+00
       21  1    1    2  502  501 +9.5817233275e+00 +2.8136254170e+01 +3.8277867431e+01 4.8462907009e+01 0.0000000000e+00 0.0000e+00 1.0000e+00
<mgrwt>
<rscale>  1 0.10292454E+04</rscale>
<asrwt>0</asrwt>
<pdfrwt beam="1">  1        2 0.12345887E+00 0.10292454E+04</pdfrwt>
<pdfrwt beam="2">  1       -2 0.54456785E-01 0.10292454E+04</pdfrwt>
<totfact> 0.10851551E+02</totfact>
</mgrwt>
</event>
<event>
 6      1 +3.0741590e+01 9.90226900e+02 7.81860800e-03 9.31932900e-02
        2 -1    0    0  502    0 +0.0000000000e+00 +0.0000000000e+00 +3.0434001225e+03 3.0434001225e+03 0.0000000000e+00 0.0000e+00 -1.0000e+00
       -2 -1    0    0    0  501 -0.0000000000e+00 -0.0000000000e+00 -1.2089321370e+02 1.2089321370e+02 0.0000000000e+00 0.0000e+00 1.0000e+00
  5000001  2    1    2    0    0 +4.6827284613e+01 +8.9489162272e+01 +1.9545006118e+03 2.1910321710e+03 9.8506255024e+02 0.0000e+00 0.0000e+00
  5000521  1    3    3    0    0 +3.9097610769e+02 +3.6816331333e+02 +1.2250438397e+03 1.3376243685e+03 1.0000000000e+01 0.0000e+00 1.0000e+00
 -5000521  1    3    3    0    0 -3.4414882308e+02 -2.7867415106e+02 +7.2945677213e+02 8.5340780246e+02 1.0000000000e+01 0.0000e+00 -1.0000e+00
       21  1    1    2  502  501 -4.6827284613e+01 -8.9489162272e+01 +9.6800629699e+02 9.7326116524e+02 0.0000000000e+00 0.0000e+00 -1.0000e+00
<mgrwt>
<rscale>  1 0.99022691E+03</rscale>
<asrwt>0</asrwt>
<pdfrwt beam="1">  1        2 0.46821535E+00 0.99022691E+03</pdfrwt>
<pdfrwt beam="2">  1       -2 0.18598958E-01 0.99022691E+03</pdfrwt>
<totfact> 0.40612046E+01</totfact>
</mgrwt>
</event>
<event>
 6      1 +3.0741590e+01 9.98849500e+02 7.81860800e-03 9.30980800e-02
        2 -1    0    0  502    0 +0.0000000000e+00 +0.0000000000e+00 +2.1387609118e+03 2.1387609118e+03 0.0000000000e+00 0.0000e+00 1.0000e+00
       -2 -1    0    0    0  501 -0.0000000000e+00 -0.0000000000e+00 -1.7673596829e+02 1.7673596829e+02 0.0000000000e+00 0.0000e+00 -1.0000e+00
  5000001  2    1    2    0    0 +2.1379371657e+01 +4.0431198193e+01 +2.0128904106e+03 2.2470932613e+03 9.9780186432e+02 0.0000e+00 0.0000e+00
  5000521  1    3    3    0    0 +3.2211834916e+02 +1.2160727555e+02 +1.8144916331e+02 3.8932294974e+02 1.0000000000e+01 0.0000e+00 -1.0000e+00
 -5000521  1    3    3    0    0 -3.0073897750e+02 -8.1176077354e+01 +1.8314412473e+03 1.8577703115e+03 1.0000000000e+01 0.0000e+00 1.0000e+00
       21  1    1    2  502  501 -2.1379371657e+01 -4.0431198193e+01 -5.0865467118e+01 6.8403618800e+01 0.0000000000e+00 0.0000e+00 -1.0000e+00
<mgrwt>
<rscale>  1 0.99884950E+03</rscale>
<asrwt>0</asrwt>
<pdfrwt beam="1">  1        2 0.32904012E+00 0.99884950E+03</pdfrwt>
<pdfrwt beam="2">  1       -2 0.27190150E-01 0.99884950E+03</pdfrwt>
<totfact> 0.69112826E+01</totfact>
</mgrwt>
</event>
<event>
 6      1 +3.0741590e+01 1.00254900e+03 7.81860800e-03 9.30575300e-02
       -2 -1    0    0    0  501 -0.0000000000e+00 +0.0000000000e+00 +1.0488146388e+02 1.0488146388e+02 0.0000000000e+00 0.0000e+00 -1.0000e+00
        2 -1    0    0  502    0 +0.0000000000e+00 -0.0000000000e+00 -2.9758420502e+03 2.9758420502e+03 0.0000000000e+00 0.0000e+00 1.0000e+00
  5000001  2    1    2    0    0 -1.0962806289e+02 -1.7365529808e+01 -2.5005600306e+03 2.6940499496e+03 9.9638586421e+02 0.0000e+00 0.0000e+00
  5000521  1    3    3    0    0 +3.5068739021e+02 -2.7897933245e+02 -1.4478977090e+03 1.5156908951e+03 1.0000000000e+01 0.0000e+00 1.0000e+00
 -5000521  1    3    3    0    0 -4.6031545310e+02 +2.6161380264e+02 -1.0526623216e+03 1.1783590545e+03 1.0000000000e+01 0.0000e+00 -1.0000e+00
       21  1    1    2  502  501 +1.0962806289e+02 +1.7365529808e+01 -3.7040055576e+02 3.8667356453e+02 0.0000000000e+00 0.0000e+00 -1.0000e+00
<mgrwt>
<rscale>  1 0.10025491E+04</rscale>
<asrwt>0</asrwt>
<pdfrwt beam="1">  1        2 0.45782191E+00 0.10025491E+04</pdfrwt>
<pdfrwt beam="2">  1       -2 0.16135608E-01 0.10025491E+04</pdfrwt>
<totfact> 0.57068502E+01</totfact>
</mgrwt>
</event>
<event>
 6      1 +3.0741590e+01 1.00126500e+03 7.81860800e-03 9.30715900e-02
       -1 -1    0    0    0  501 -0.0000000000e+00 +0.0000000000e+00 +3.9215943584e+02 3.9215943584e+02 0.0000000000e+00 0.0000e+00 -1.0000e+00
        1 -1    0    0  502    0 +0.0000000000e+00 -0.0000000000e+00 -7.8781491628e+02 7.8781491628e+02 0.0000000000e+00 0.0000e+00 1.0000e+00
  5000001  2    1    2    0    0 +6.3341187537e-01 +2.9681210753e+01 -4.6542444616e+02 1.1041516375e+03 1.0008244341e+03 0.0000e+00 0.0000e+00
  5000521  1    3    3    0    0 +4.1153628595e+02 -2.5170378798e+02 -1.1766006720e+02 4.9664957762e+02 1.0000000000e+01 0.0000e+00 1.0000e+00
 -5000521  1    3    3    0    0 -4.1090287407e+02 +2.8138499873e+02 -3.4776437896e+02 6.0750205984e+02 1.0000000000e+01 0.0000e+00 -1.0000e+00
       21  1    1    2  502  501 -6.3341187537e-01 -2.9681210753e+01 +6.9768965716e+01 7.5822714667e+01 0.0000000000e+00 0.0000e+00 1.0000e+00
<mgrwt>
<rscale>  1 0.10012647E+04</rscale>
<asrwt>0</asrwt>
<pdfrwt beam="1">  1        1 0.12120229E+00 0.10012647E+04</pdfrwt>
<pdfrwt beam="2">  1       -1 0.60332221E-01 0.10012647E+04</pdfrwt>
<totfact> 0.63287264E+01</totfact>
</mgrwt>
</event>
<event>
 6      1 +3.0741590e+01 1.03356500e+03 7.81860800e-03 9.27247800e-02
       21 -1    0    0  501  502 +0.0000000000e+00 +0.0000000000e+00 +1.3849899655e+02 1.3849899655e+02 0.0000000000e+00 0.0000e+00 -1.0000e+00
        2 -1    0    0  502    0 -0.0000000000e+00 -0.0000000000e+00 -2.9689221861e+03 2.9689221861e+03 0.0000000000e+00 0.0000e+00 -1.0000e+00
  5000001  2    1    2    0    0 +3.9120160241e+01 +2.4500119049e+02 -2.3252185640e+03 2.5445822324e+03 1.0033451035e+03 0.0000e+00 0.0000e+00
  5000521  1    3    3    0    0 -5.3235424084e+01 +5.0664679202e+02 -5.5780778830e+02 7.5549620180e+02 1.0000000000e+01 0.0000e+00 -1.0000e+00
 -5000521  1    3    3    0    0 +9.2355584325e+01 -2.6164560153e+02 -1.7674107757e+03 1.7890860306e+03 1.0000000000e+01 0.0000e+00 1.0000e+00
        2  1    1    2  501    0 -3.9120160241e+01 -2.4500119049e+02 -5.0520462562e+02 5.6283895035e+02 0.0000000000e+00 0.0000e+00 -1.0000e+00
<mgrwt>
<rscale>  1 0.10335654E+04</rscale>
<asrwt>0</asrwt>
<pdfrwt beam="1">  1       21 0.21307537E-01 0.10335654E+04</pdfrwt>
<pdfrwt beam="2">  1        2 0.45675729E+00 0.10335654E+04</pdfrwt>
<totfact> 0.44739358E+02</totfact>
</mgrwt>
</event>
<event>
 6      1 +3.0741590e+01 9.66715800e+02 7.81860800e-03 9.34582300e-02
        2 -1    0    0  502    0 -0.0000000000e+00 +0.0000000000e+00 +5.1456336333e+02 5.1456336333e+02 0.0000000000e+00 0.0000e+00 -1.0000e+00
       21 -1    0    0  501  502 +0.0000000000e+00 -0.0000000000e+00 -1.1375416954e+03 1.1375416954e+03 0.0000000000e+00 0.0000e+00 1.0000e+00
  5000001  2    1    2    0    0 +6.8226084711e+01 -3.9937508801e+01 +5.6193533965e+01 9.6834762598e+02 9.6347787117e+02 0.0000e+00 0.0000e+00
  5000521  1    3    3    0    0 +1.6707687564e+02 +2.8021138346e+01 +4.8978749508e+02 5.1835475970e+02 1.0000000000e+01 0.0000e+00 -1.0000e+00
 -5000521  1    3    3    0    0 -9.8850790929e+01 -6.7958647146e+01 -4.3359396111e+02 4.4999286628e+02 1.0000000000e+01 0.0000e+00 1.0000e+00
        2  1    1    2  501    0 -6.8226084711e+01 +3.9937508801e+01 -6.7917186606e+02 6.8375743279e+02 0.0000000000e+00 0.0000e+00 -1.0000e+00
<mgrwt>
<rscale>  1 0.96671579E+03</rscale>
<asrwt>0</asrwt>
<pdfrwt beam="1">  1       21 0.17500641E+00 0.96671579E+03</pdfrwt>
<pdfrwt beam="2">  1        2 0.79163596E-01 0.96671579E+03</pdfrwt>
<totfact> 0.11392514E+02</totfact>
</mgrwt>
</event>
<event>
 6      1 +3.0741590e+01 1.00411400e+03 7.81860800e-03 9.30404500e-02
        2 -1    0    0  502    0 +0.0000000000e+00 +0.0000000000e+00 +1.2217679544e+03 1.2217679544e+03 0.0000000000e+00 0.0000e+00 1.0000e+00
       -2 -1    0    0    0  501 -0.0000000000e+00 -0.0000000000e+00 -2.8490126685e+02 2.8490126685e+02 0.0000000000e+00 0.0000e+00 -1.0000e+00
  5000001  2    1    2    0    0 +1.7818413253e+01 -2.9359684568e+01 +1.0110360484e+03 1.4249343999e+03 1.0035261162e+03 0.0000e+00 0.0000e+00
  5000521  1    3    3    0    0 +8.5910959684e+00 +8.3694001577e+01 -1.9548280650e+02 2.1305403180e+02 1.0000000000e+01 0.0000e+00 -1.0000e+00
 -5000521  1    3    3    0    0 +9.2273172847e+00 -1.1305368614e+02 +1.2065188549e+03 1.2118803681e+03 1.0000000000e+01 0.0000e+00 1.0000e+00
       21  1    1    2  502  501 -1.7818413253e+01 +2.9359684568e+01 -7.4169360864e+01 8.1734821341e+01 0.0000000000e+00 0.0000e+00 1.0000e+00
<mgrwt>
<rscale>  1 0.10041136E+04</rscale>
<asrwt>0</asrwt>
<pdfrwt beam="1">  1        2 0.18796430E+00 0.10041136E+04</pdfrwt>
<pdfrwt beam="2">  1       -2 0.43830965E-01 0.10041136E+04</pdfrwt>
<totfact> 0.90506936E+01</totfact>
</mgrwt>
</event>
<event>
 6      1 +3.0741590e+01 1.01213500e+03 7.81860800e-03 9.29533400e-02
       21 -1    0    0  501  502 +0.0000000000e+00 +0.0000000000e+00 +8.4948850385e+02 8.4948850385e+02 0.0000000000e+00 0.0000e+00 -1.0000e+00
        2 -1    0    0  502    0 -0.0000000000e+00 -0.0000000000e+00 -4.2188814503e+02 4.2188814503e+02 0.0000000000e+00 0.0000e+00 1.0000e+00
  5000001  2    1    2    0    0 -1.2396489149e+02 +8.2242083898e+01 +2.5549009462e+02 1.0438837968e+03 1.0011429159e+03 0.0000e+00 0.0000e+00
  5000521  1    3    3    0    0 +2.3588147794e+02 -2.8198812919e+00 -2.9674185460e+02 3.7921465113e+02 1.0000000000e+01 0.0000e+00 1.0000e+00
 -5000521  1    3    3    0    0 -3.5984636943e+02 +8.5061965190e+01 +5.5223194921e+02 6.6466914570e+02 1.0000000000e+01 0.0000e+00 -1.0000e+00
        2  1    1    2  501    0 +1.2396489149e+02 -8.2242083898e+01 +1.7211026421e+02 2.2749285205e+02 0.0000000000e+00 0.0000e+00 1.0000e+00
<mgrwt>
<rscale>  1 0.10121355E+04</rscale>
<asrwt>0</asrwt>
<pdfrwt beam="1">  1       21 0.13069054E+00 0.10121355E+04</pdfrwt>
<pdfrwt beam="2">  1        2 0.64905869E-01 0.10121355E+04</pdfrwt>
<totfact> 0.32275509E+02</totfact>
</mgrwt>
</event>
<event>
 6      1 +3.0741590e+01 1.00233100e+03 7.81860800e-03 9.30599200e-02
        2 -1    0    0  502    0 +0.0000000000e+00 +0.0000000000e+00 +1.2560243444e+03 1.2560243444e+03 0.0000000000e+00 0.0000e+00 1.0000e+00
       -2 -1    0    0    0  501 -0.0000000000e+00 -0.0000000000e+00 -3.2770158099e+02 3.2770158099e+02 0.0000000000e+00 0.0000e+00 -1.0000e+00
  5000001  2    1    2    0    0 -3.2978656989e+00 -2.3127250609e+01 +4.3968043978e+02 1.0945254899e+03 1.0020585878e+03 0.0000e+00 0.0000e+00
  5000521  1    3    3    0    0 +6.7267565545e+01 +3.0639464121e+02 +6.3253783449e+02 7.0612089163e+02 1.0000000000e+01 0.0000e+00 1.0000e+00
 -5000521  1    3    3    0    0 -7.0565431244e+01 -3.2952189182e+02 -1.9285739471e+02 3.8840459828e+02 1.0000000000e+01 0.0000e+00 -1.0000e+00
       21  1    1    2  502  501 +3.2978656989e+00 +2.3127250609e+01 +4.8864232359e+02 4.8920043545e+02 0.0000000000e+00 0.0000e+00 1.0000e+00
<mgrwt>
<rscale>  1 0.10023309E+04</rscale>
<asrwt>0</asrwt>
<pdfrwt beam="1">  1        2 0.19323451E+00 0.10023309E+04</pdfrwt>
<pdfrwt beam="2">  1       -2 0.50415628E-01 0.10023309E+04</pdfrwt>
<totfact> 0.65119365E+01</totfact>
</mgrwt>
</event>
<event>
 6      1 +3.0741590e+01 9.99655600e+02 7.81860800e-03 9.30892300e-02
        2 -1    0    0  502    0 +0.0000000000e+00 +0.0000000000e+00 +2.4103413789e+03 2.4103413789e+03 0.0000000000e+00 0.0000e+00 -1.0000e+00
       -2 -1    0    0    0  501 -0.0000000000e+00 -0.0000000000e+00 -1.1231123414e+02 1.1231123414e+02 0.0000000000e+00 0.0000e+00 1.0000e+00
  5000001  2    1    2    0    0 -3.0801195060e+01 -2.3784166839e+01 +2.1776026829e+03 2.3960936395e+03 9.9889783488e+02 0.0000e+00 0.0000e+00
  5000521  1    3    3    0    0 +4.4860941910e+02 +1.4812246484e+02 +8.2493487098e+02 9.5068828586e+02 1.0000000000e+01 0.0000e+00 -1.0000e+00
 -5000521  1    3    3    0    0 -4.7941061416e+02 -1.7190663167e+02 +1.3526678120e+03 1.4454053537e+03 1.0000000000e+01 0.0000e+00 1.0000e+00
       21  1    1    2  502  501 +3.0801195060e+01 +2.3784166839e+01 +1.2042746179e+02 1.2655897345e+02 0.0000000000e+00 0.0000e+00 1.0000e+00
<mgrwt>
<rscale>  1 0.99965558E+03</rscale>
<asrwt>0</asrwt>
<pdfrwt beam="1">  1        2 0.37082171E+00 0.99965558E+03</pdfrwt>
<pdfrwt beam="2">  1       -2 0.17278653E-01 0.99965558E+03</pdfrwt>
<totfact> 0.10907967E+02</totfact>
</mgrwt>
</event>
<event>
 6      1 +3.0741590e+01 1.00637500e+03 7.81860800e-03 9.30158000e-02
        2 -1    0    0  502    0 +0.0000000000e+00 +0.0000000000e+00 +6.8515506757e+02 6.8515506757e+02 0.0000000000e+00 0.0000e+00 -1.0000e+00
       -2 -1    0    0    0  501 -0.0000000000e+00 -0.0000000000e+00 -4.6468725653e+02 4.6468725653e+02 0.0000000000e+00 0.0000e+00 1.0000e+00
  5000001  2    1    2    0    0 +5.1536172920e+01 -2.7505156082e+01 +9.4271447121e+01 1.0107810678e+03 1.0046784314e+03 0.0000e+00 0.0000e+00
  5000521  1    3    3    0    0 +4.7525960478e+02 +2.4933155986e+01 -1.7356117164e+02 5.0667231472e+02 1.0000000000e+01 0.0000e+00 1.0000e+00
 -5000521  1    3    3    0    0 -4.2372343186e+02 -5.2438312068e+01 +2.6783261876e+02 5.0410875310e+02 1.0000000000e+01 0.0000e+00 -1.0000e+00
       21  1    1    2  502  501 -5.1536172920e+01 +2.7505156082e+01 +1.2619636392e+02 1.3906125627e+02 0.0000000000e+00 0.0000e+00 -1.0000e+00
<mgrwt>
<rscale>  1 0.10063753E+04</rscale>
<asrwt>0</asrwt>
<pdfrwt beam="1">  1        2 0.10540847E+00 0.10063753E+04</pdfrwt>
<pdfrwt beam="2">  1       -2 0.71490347E-01 0.10063753E+04</pdfrwt>
<totfact> 0.74539866E+01</totfact>
</mgrwt>
</event>
<event>
 6      1 +3.0741590e+01 1.03398800e+03 7.81860800e-03 9.27203400e-02
        1 -1    0    0  502    0 +0.0000000000e+00 +0.0000000000e+00 +5.2393972273e+02 5.2393972273e+02 0.0000000000e+00 0.0000e+00 -1.0000e+00
       -1 -1    0    0    0  501 -0.0000000000e+00 -0.0000000000e+00 -8.1332065926e+02 8.1332065926e+02 0.0000000000e+00 0.0000e+00 1.0000e+00
  5000001  2    1    2    0    0 -2.5585800002e+02 +3.8563965515e+01 -3.0502414902e+02 1.0780400014e+03 1.0010894154e+03 0.0000e+00 0.0000e+00
  5000521  1    3    3    0    0 -3.5641022162e+02 +4.6498388207e+02 -2.4740026333e+02 6.3603863637e+02 1.0000000000e+01 0.0000e+00 1.0000e+00
 -5000521  1    3    3    0    0 +1.0055222161e+02 -4.2641991655e+02 -5.7623885694e+01 4.4200136505e+02 1.0000000000e+01 0.0000e+00 -1.0000e+00
       21  1    1    2  502  501 +2.5585800002e+02 -3.8563965515e+01 +1.5643212498e+01 2.5922038058e+02 0.0000000000e+00 0.0000e+00 -1.0000e+00
<mgrwt>
<rscale>  1 0.10339877E+04</rscale>
<asrwt>0</asrwt>
<pdfrwt beam="1">  1        1 0.80606111E-01 0.10339877E+04</pdfrwt>
<pdfrwt beam="2">  1       -1 0.12512626E+00 0.10339877E+04</pdfrwt>
<totfact> 0.23186333E+01</totfact>
</mgrwt>
</event>
<event>
 6      1 +3.0741590e+01 1.00092100e+03 7.81860800e-03 9.30753500e-02
       -2 -1    0    0    0  501 -0.0000000000e+00 +0.0000000000e+00 +3.2646455738e+02 3.2646455738e+02 0.0000000000e+00 0.0000e+00 -1.0000e+00
        2 -1    0    0  502    0 +0.0000000000e+00 -0.0000000000e+00 -8.1502937882e+02 8.1502937882e+02 0.0000000000e+00 0.0000e+00 1.0000e+00
  5000001  2    1    2    0    0 -2.7931254984e+01 -1.1972704841e+01 -4.6900896628e+02 1.1053562531e+03 1.0004596620e+03 0.0000e+00 0.0000e+00
  5000521  1    3    3    0    0 -2.8132104689e+02 -2.0524324054e+02 +1.7267622386e+02 3.8882309280e+02 1.0000000000e+01 0.0000e+00 -1.0000e+00
 -5000521  1    3    3    0    0 +2.5338979190e+02 +1.9327053570e+02 -6.4168519014e+02 7.1653316033e+02 1.0000000000e+01 0.0000e+00 1.0000e+00
       21  1    1    2  502  501 +2.7931254984e+01 +1.1972704841e+01 -1.9555855165e+01 3.6137683067e+01 0.0000000000e+00 0.0000e+00 1.0000e+00
<mgrwt>
<rscale>  1 0.10009211E+04</rscale>
<asrwt>0</asrwt>
<pdfrwt beam="1">  1        2 0.12538913E+00 0.10009211E+04</pdfrwt>
<pdfrwt beam="2">  1       -2 0.50225317E-01 0.10009211E+04</pdfrwt>
<totfact> 0.12574465E+02</totfact>
</mgrwt>
</event>
<event>
 6      1 +3.0741590e+01 9.98797700e+02 7.81860800e-03 9.30986400e-02
       -2 -1    0    0    0  501 -0.0000000000e+00 +0.0000000000e+00 +1.0870495790e+03 1.0870495790e+03 0.0000000000e+00 0.0000e+00 1.0000e+00
        2 -1    0    0  502    0 +0.0000000000e+00 -0.0000000000e+00 -2.7248844976e+02 2.7248844976e+02 0.0000000000e+00 0.0000e+00 -1.0000e+00
  5000001  2    1    2    0    0 -1.5247610593e+01 +1.7039637468e+01 +8.5388742402e+02 1.3140474107e+03 9.9853594118e+02 0.0000e+00 0.0000e+00
  5000521  1    3    3    0    0 -7.4118595617e+01 +5.8622829972e+01 +1.0760673023e+03 1.0802550817e+03 1.0000000000e+01 0.0000e+00 1.0000e+00
 -5000521  1    3    3    0    0 +5.8870985024e+01 -4.1583192504e+01 -2.2217987831e+02 2.3379232901e+02 1.0000000000e+01 0.0000e+00 -1.0000e+00
       21  1    1    2  502  501 +1.5247610593e+01 -1.7039637468e+01 -3.9326294752e+01 4.5490618074e+01 0.0000000000e+00 0.0000e+00 -1.0000e+00
<mgrwt>
<rscale>  1 0.99879771E+03</rscale>
<asrwt>0</asrwt>
<pdfrwt beam="1">  1        2 0.41921300E-01 0.99879771E+03</pdfrwt>
<pdfrwt beam="2">  1       -2 0.16723840E+00 0.99879771E+03</pdfrwt>
<totfact> 0.27188206E+01</totfact>
</mgrwt>
</event>
<event>
 6      1 +3.0741590e+01 1.00895700e+03 7.81860800e-03 9.29877500e-02
       21 -1    0    0  501  502 +0.0000000000e+00 +0.0000000000e+00 +1.9143048982e+02 1.9143048982e+02 0.0000000000e+00 0.0000e+00 -1.0000e+00
        1 -1    0    0  502    0 -0.0000000000e+00 -0.0000000000e+00 -2.6202367503e+03 2.6202367503e+03 0.0000000000e+00 0.0000e+00 -1.0000e+00
  5000001  2    1    2    0    0 -7.5154558953e+00 +1.1905767961e+02 -2.4833543175e+03 2.6804929147e+03 1.0018794271e+03 0.0000e+00 0.0000e+00
  5000521  1    3    3    0    0 -1.8608030735e+02 -3.3391429029e+02 -4.5429389288e+02 5.9380769206e+02 1.0000000000e+01 0.0000e+00 1.0000e+00
 -5000521  1    3    3    0    0 +1.7856485146e+02 +4.5297196990e+02 -2.0290604246e+03 2.0866852226e+03 1.0000000000e+01 0.0000e+00 -1.0000e+00
        1  1    1    2  501    0 +7.5154558953e+00 -1.1905767961e+02 +5.4548056932e+01 1.3117432548e+02 0.0000000000e+00 0.0000e+00 -1.0000e+00
<mgrwt>
<rscale>  1 0.10089567E+04</rscale>
<asrwt>0</asrwt>
<pdfrwt beam="1">  1       21 0.29450848E-01 0.10089567E+04</pdfrwt>
<pdfrwt beam="2">  1        1 0.40311330E+00 0.10089567E+04</pdfrwt>
<totfact> 0.12703430E+02</totfact>
</mgrwt>
</event>
<event>
 6      1 +3.0741590e+01 1.00865000e+03 7.81860800e-03 9.29910800e-02
        2 -1    0    0  502    0 +0.0000000000e+00 +0.0000000000e+00 +4.9257643517e+02 4.9257643517e+02 0.0000000000e+00 0.0000e+00 -1.0000e+00
       -2 -1    0    0    0  501 -0.0000000000e+00 -0.0000000000e+00 -5.8498138173e+02 5.8498138173e+02 0.0000000000e+00 0.0000e+00 1.0000e+00
  5000001  2    1    2    0    0 +3.5792042817e+01 +7.5628397318e+00 -1.3914623589e+02 1.0182028255e+03 1.0079866329e+03 0.0000e+00 0.0000e+00
  5000521  1    3    3    0    0 +8.4328046480e+01 +7.5879523895e+01 -5.6892750902e+02 5.8021326431e+02 1.0000000000e+01 0.0000e+00 1.0000e+00
 -5000521  1    3    3    0    0 -4.8536003664e+01 -6.8316684163e+01 +4.2978127313e+02 4.3798956120e+02 1.0000000000e+01 0.0000e+00 -1.0000e+00
       21  1    1    2  502  501 -3.5792042817e+01 -7.5628397318e+00 +4.6741289325e+01 5.9354991379e+01 0.0000000000e+00 0.0000e+00 -1.0000e+00
<mgrwt>
<rscale>  1 0.10086502E+04</rscale>
<asrwt>0</asrwt>
<pdfrwt beam="1">  1        2 0.75780990E-01 0.10086502E+04</pdfrwt>
<pdfrwt beam="2">  1       -2 0.89997136E-01 0.10086502E+04</pdfrwt>
<totfact> 0.66077515E+01</totfact>
</mgrwt>
</event>
<event>
 6      1 +3.0741590e+01 9.93520400e+02 7.81860800e-03 9.31568000e-02
       -1 -1    0    0    0  501 -0.0000000000e+00 +0.0000000000e+00 +4.1629174065e+02 4.1629174065e+02 0.0000000000e+00 0.0000e+00 -1.0000e+00
        1 -1    0    0  502    0 +0.0000000000e+00 -0.0000000000e+00 -6.9738496748e+02 6.9738496748e+02 0.0000000000e+00 0.0000e+00 1.0000e+00
  5000001  2    1    2    0    0 -8.3857320881e+00 +3.0512603618e+01 -3.3726519319e+02 1.0492047818e+03 9.9301637655e+02 0.0000e+00 0.0000e+00
  5000521  1    3    3    0    0 -3.3709228982e+02 +2.2065161558e+01 +2.1916474678e+02 4.0280425698e+02 1.0000000000e+01 0.0000e+00 -1.0000e+00
 -5000521  1    3    3    0    0 +3.2870655773e+02 +8.4474420597e+00 -5.5642993997e+02 6.4640052481e+02 1.0000000000e+01 0.0000e+00 1.0000e+00
       21  1    1    2  502  501 +8.3857320881e+00 -3.0512603618e+01 +5.6171966360e+01 6.4471926348e+01 0.0000000000e+00 0.0000e+00 1.0000e+00
<mgrwt>
<rscale>  1 0.99352044E+03</rscale>
<asrwt>0</asrwt>
<pdfrwt beam="1">  1        1 0.10728999E+00 0.99352044E+03</pdfrwt>
<pdfrwt beam="2">  1       -1 0.64044884E-01 0.99352044E+03</pdfrwt>
<totfact> 0.67955335E+01</totfact>
</mgrwt>
</event>
<event>
 6      1 +3.0741590e+01 9.74967500e+02 7.81860800e-03 9.33643400e-02
        1 -1    0    0  502    0 +0.0000000000e+00 +0.0000000000e+00 +1.0993581282e+03 1.0993581282e+03 0.0000000000e+00 0.0000e+00 -1.0000e+00
       -1 -1    0    0    0  501 -0.0000000000e+00 -0.0000000000e+00 -6.4786700637e+02 6.4786700637e+02 0.0000000000e+00 0.0000e+00 1.0000e+00
  5000001  2    1    2    0    0 -2.1796987465e-01 +2.4091451225e+01 -2.8075235284e+02 1.0145854198e+03 9.7466981323e+02 0.0000e+00 0.0000e+00
  5000521  1    3    3    0    0 +1.6307295631e+02 +1.9334566610e+02 -5.8059781238e+02 6.3337915613e+02 1.0000000000e+01 0.0000e+00 1.0000e+00
 -5000521  1    3    3    0    0 -1.6329092618e+02 -1.6925421488e+02 +2.9984545954e+02 3.8120626363e+02 1.0000000000e+01 0.0000e+00 -1.0000e+00
       21  1    1    2  502  501 +2.1796987465e-01 -2.4091451225e+01 +7.3224347465e+02 7.3263971480e+02 0.0000000000e+00 0.0000e+00 -1.0000e+00
<mgrwt>
<rscale>  1 0.97496753E+03</rscale>
<asrwt>0</asrwt>
<pdfrwt beam="1">  1        1 0.16913202E+00 0.97496753E+03</pdfrwt>
<pdfrwt beam="2">  1       -1 0.99671847E-01 0.97496753E+03</pdfrwt>
<totfact> 0.12257257E+01</totfact>
</mgrwt>
</event>
<event>
 6      1 +3.0741590e+01 1.00052300e+03 7.81860800e-03 9.30797100e-02
       -2 -1    0    0    0  501 -0.0000000000e+00 +0.0000000000e+00 +1.8040952666e+02 1.8040952666e+02 0.0000000000e+00 0.0000e+00 -1.0000e+00
        2 -1    0    0  502    0 +0.0000000000e+00 -0.0000000000e+00 -1.5880222704e+03 1.5880222704e+03 0.0000000000e+00 0.0000e+00 1.0000e+00
  5000001  2    1    2    0    0 -1.2476732940e+01 -6.8653521599e+01 -1.3071242341e+03 1.6460924516e+03 9.9808698058e+02 0.0000e+00 0.0000e+00
  5000521  1    3    3    0    0 -4.9901082514e+02 -3.5127031262e+01 -5.3256092144e+02 7.3073035175e+02 1.0000000000e+01 0.0000e+00 -1.0000e+00
 -5000521  1    3    3    0    0 +4.8653409220e+02 -3.3526490337e+01 -7.7456331267e+02 9.1536209981e+02 1.0000000000e+01 0.0000e+00 1.0000e+00
       21  1    1    2  502  501 +1.2476732940e+01 +6.8653521599e+01 -1.0048850967e+02 1.2233934555e+02 0.0000000000e+00 0.0000e+00 1.0000e+00
<mgrwt>
<rscale>  1 0.10005232E+04</rscale>
<asrwt>0</asrwt>
<pdfrwt beam="1">  1        2 0.24431112E+00 0.10005232E+04</pdfrwt>
<pdfrwt beam="2">  1       -2 0.27755312E-01 0.10005232E+04</pdfrwt>
<totfact> 0.13396891E+02</totfact>
</mgrwt>
</event>
<event>
 6      1 +3.0741590e+01 1.02948900e+03 7.81860800e-03 9.27678000e-02
        1 -1    0    0  502    0 +0.0000000000e+00 +0.0000000000e+00 +2.4926285932e+03 2.4926285932e+03 0.0000000000e+00 0.0000e+00 -1.0000e+00
       -1 -1    0    0    0  501 -0.0000000000e+00 -0.0000000000e+00 -1.6667084098e+02 1.6667084098e+02 0.0000000000e+00 0.0000e+00 1.0000e+00
  5000001  2    1    2    0    0 -6.1440244461e+01 -2.1149219619e+02 +1.6168810432e+03 1.9168079312e+03 1.0056562458e+03 0.0000e+00 0.0000e+00
  5000521  1    3    3    0    0 -4.1663571406e+02 -2.2515013264e+02 +3.1897921606e+02 5.7107411142e+02 1.0000000000e+01 0.0000e+00 1.0000e+00
 -5000521  1    3    3    0    0 +3.5519546960e+02 +1.3657936450e+01 +1.2979018272e+03 1.3457338198e+03 1.0000000000e+01 0.0000e+00 -1.0000e+00
       21  1    1    2  502  501 +6.1440244461e+01 +2.1149219619e+02 +7.0907670897e+02 7.4249150291e+02 0.0000000000e+00 0.0000e+00 1.0000e+00
<mgrwt>
<rscale>  1 0.10294894E+04</rscale>
<asrwt>0</asrwt>
<pdfrwt beam="1">  1        1 0.38348130E+00 0.10294894E+04</pdfrwt>
<pdfrwt beam="2">  1       -1 0.25641670E-01 0.10294894E+04</pdfrwt>
<totfact> 0.18606190E+01</totfact>
</mgrwt>
</event>
<event>
 6      1 +3.0741590e+01 1.00121200e+03 7.81860800e-03 9.30721600e-02
        2 -1    0    0  502    0 +0.0000000000e+00 +0.0000000000e+00 +9.9560145109e+02 9.9560145109e+02 0.0000000000e+00 0.0000e+00 1.0000e+00
       -2 -1    0    0    0  501 -0.0000000000e+00 -0.0000000000e+00 -3.4175920176e+02 3.4175920176e+02 0.0000000000e+00 0.0000e+00 -1.0000e+00
  5000001  2    1    2    0    0 -1.6851429054e+01 +1.7873172122e+01 +7.4177809805e+02 1.2460582190e+03 1.0009110437e+03 0.0000e+00 0.0000e+00
  5000521  1    3    3    0    0 -1.9701771921e+02 -2.7719437990e+02 -8.4286504279e+01 3.5050951589e+02 1.0000000000e+01 0.0000e+00 -1.0000e+00
 -5000521  1    3    3    0    0 +1.8016629016e+02 +2.9506755202e+02 +8.2606460233e+02 8.9554870308e+02 1.0000000000e+01 0.0000e+00 1.0000e+00
       21  1    1    2  502  501 +1.6851429054e+01 -1.7873172122e+01 -8.7935848714e+01 9.1302433877e+01 0.0000000000e+00 0.0000e+00 1.0000e+00
<mgrwt>
<rscale>  1 0.10012124E+04</rscale>
<asrwt>0</asrwt>
<pdfrwt beam="1">  1        2 0.15316945E+00 0.10012124E+04</pdfrwt>
<pdfrwt beam="2">  1       -2 0.52578339E-01 0.10012124E+04</pdfrwt>
<totfact> 0.86310576E+01</totfact>
</mgrwt>
</event>
<event>
 6      1 +3.0741590e+01 9.68097600e+02 7.81860800e-03 9.34424400e-02
       -1 -1    0    0    0  501 -0.0000000000e+00 +0.0000000000e+00 +1.0716290882e+02 1.0716290882e+02 0.0000000000e+00 0.0000e+00 1.0000e+00
        1 -1    0    0  502    0 +0.0000000000e+00 -0.0000000000e+00 -2.3991594334e+03 2.3991594334e+03 0.0000000000e+00 0.0000e+00 -1.0000e+00
  5000001  2    1    2    0    0 -4.4896311539e+01 +6.9178447341e+00 -2.2056429047e+03 2.4087493796e+03 9.6703123803e+02 0.0000e+00 0.0000e+00
  5000521  1    3    3    0    0 -2.4834773328e+02 +3.7960026221e+02 -6.2687448121e+02 7.7385048355e+02 1.0000000000e+01 0.0000e+00 1.0000e+00
 -5000521  1    3    3    0    0 +2.0345142174e+02 -3.7268241748e+02 -1.5787684235e+03 1.6348988961e+03 1.0000000000e+01 0.0000e+00 -1.0000e+00
       21  1    1    2  502  501 +4.4896311539e+01 -6.9178447341e+00 -8.6353619799e+01 9.7572962535e+01 0.0000000000e+00 0.0000e+00 -1.0000e+00
<mgrwt>
<rscale>  1 0.96809759E+03</rscale>
<asrwt>0</asrwt>
<pdfrwt beam="1">  1        1 0.36910145E+00 0.96809759E+03</pdfrwt>
<pdfrwt beam="2">  1       -1 0.16486602E-01 0.96809759E+03</pdfrwt>
<totfact> 0.45581444E+01</totfact>
</mgrwt>
</event>
<event>
 6      1 +3.0741590e+01 1.01921900e+03 7.81860800e-03 9.28771300e-02
       -2 -1    0    0    0  501 -0.0000000000e+00 +0.0000000000e+00 +1.0585411077e+03 1.0585411077e+03 0.0000000000e+00 0.0000e+00 -1.0000e+00
        2 -1    0    0  502    0 +0.0000000000e+00 -0.0000000000e+00 -2.7219465470e+02 2.7219465470e+02 0.0000000000e+00 0.0000e+00 1.0000e+00
  5000001  2    1    2    0    0 -4.4207386479e+01 +1.5410818449e+01 +7.1349962458e+02 1.2441421901e+03 1.0181435501e+03 0.0000e+00 0.0000e+00
  5000521  1    3    3    0    0 -2.3075686775e+02 -1.7953974257e+02 -1.5750081749e+02 3.3224954279e+02 1.0000000000e+01 0.0000e+00 1.0000e+00
 -5000521  1    3    3    0    0 +1.8654948127e+02 +1.9495056102e+02 +8.7100044207e+02 9.1189264735e+02 1.0000000000e+01 0.0000e+00 -1.0000e+00
       21  1    1    2  502  501 +4.4207386479e+01 -1.5410818449e+01 +7.2846828394e+01 8.6593572231e+01 0.0000000000e+00 0.0000e+00 -1.0000e+00
<mgrwt>
<rscale>  1 0.10192193E+04</rscale>
<asrwt>0</asrwt>
<pdfrwt beam="1">  1        2 0.41876101E-01 0.10192193E+04</pdfrwt>
<pdfrwt beam="2">  1       -2 0.16285248E+00 0.10192193E+04</pdfrwt>
<totfact> 0.29258050E+01</totfact>
</mgrwt>
</event>
<event>
 6      1 +3.0741590e+01 9.45967700e+02 7.81860800e-03 9.36987600e-02
        1 -1    0    0  502    0 +0.0000000000e+00 +0.0000000000e+00 +1.8233156304e+02 1.8233156304e+02 0.0000000000e+00 0.0000e+00 1.0000e+00
       -1 -1    0    0    0  501 -0.0000000000e+00 -0.0000000000e+00 -2.4478068825e+03 2.4478068825e+03 0.0000000000e+00 0.0000e+00 -1.0000e+00
  5000001  2    1    2    0    0 +1.1942487172e+02 +1.1173521213e+01 -2.3146586873e+03 2.5004999049e+03 9.3833245086e+02 0.0000e+00 0.0000e+00
  5000521  1    3    3    0    0 +5.0154185293e+02 -1.0250221154e+02 -9.5538325397e+02 1.0839317763e+03 1.0000000000e+01 0.0000e+00 1.0000e+00
 -5000521  1    3    3    0    0 -3.8211698121e+02 +1.1367573275e+02 -1.3592754333e+03 1.4165681287e+03 1.0000000000e+01 0.0000e+00 -1.0000e+00
       21  1    1    2  502  501 -1.1942487172e+02 -1.1173521213e+01 +4.9183367768e+01 1.2963854067e+02 0.0000000000e+00 0.0000e+00 1.0000e+00
<mgrwt>
<rscale>  1 0.94596772E+03</rscale>
<asrwt>0</asrwt>
<pdfrwt beam="1">  1        1 0.28051012E-01 0.94596772E+03</pdfrwt>
<pdfrwt beam="2">  1       -1 0.37658564E+00 0.94596772E+03</pdfrwt>
<totfact> 0.17859847E+00</totfact>
</mgrwt>
</event>
<event>
 6      1 +3.0741590e+01 1.00109700e+03 7.81860800e-03 9.30734200e-02
       -2 -1    0    0    0  501 -0.0000000000e+00 +0.0000000000e+00 +1.0320952432e+03 1.0320952432e+03 0.0000000000e+00 0.0000e+00 -1.0000e+00
       21 -1    0    0  501  502 +0.0000000000e+00 -0.0000000000e+00 -2.7603932765e+02 2.7603932765e+02 0.0000000000e+00 0.0000e+00 1.0000e+00
  5000001  2    1    2    0    0 -6.4724734185e+01 -2.6874157311e+00 +6.9167342540e+02 1.2168021097e+03 9.9899886556e+02 0.0000e+00 0.0000e+00
  5000521  1    3    3    0    0 -4.3028951314e+02 +2.2746247320e+02 +6.0424347128e+02 7.7595000768e+02 1.0000000000e+01 0.0000e+00 1.0000e+00
 -5000521  1    3    3    0    0 +3.6556477896e+02 -2.3014988893e+02 +8.7429954117e+01 4.4085210203e+02 1.0000000000e+01 0.0000e+00 -1.0000e+00
       -2  1    1    2    0  502 +6.4724734185e+01 +2.6874157311e+00 +6.4382490162e+01 9.1332461141e+01 0.0000000000e+00 0.0000e+00 -1.0000e+00
<mgrwt>
<rscale>  1 0.10010970E+04</rscale>
<asrwt>0</asrwt>
<pdfrwt beam="1">  1       21 0.42467589E-01 0.10010970E+04</pdfrwt>
<pdfrwt beam="2">  1       -2 0.15878388E+00 0.10010970E+04</pdfrwt>
<totfact> 0.10107442E+02</totfact>
</mgrwt>
</event>
<event>
 6      1 +3.0741590e+01 1.00327600e+03 7.81860800e-03 9.30495900e-02
        1 -1    0    0  502    0 -0.0000000000e+00 +0.0000000000e+00 +6.4551335896e+02 6.4551335896e+02 0.0000000000e+00 0.0000e+00 1.0000e+00
       21 -1    0    0  501  502 +0.0000000000e+00 -0.0000000000e+00 -5.2832085666e+02 5.2832085666e+02 0.0000000000e+00 0.0000e+00 -1.0000e+00
  5000001  2    1    2    0    0 +4.9551471372e+01 -2.0519009043e+01 +2.4712907613e+02 1.0332643353e+03 1.0018413189e+03 0.0000e+00 0.0000e+00
  5000521  1    3    3    0    0 +5.6404706208e+01 +4.8505039812e+02 +5.1887832286e+01 4.9116975348e+02 1.0000000000e+01 0.0000e+00 1.0000e+00
 -5000521  1    3    3    0    0 -6.8532348360e+00 -5.0556940716e+02 +1.9524124385e+02 5.4209458177e+02 1.0000000000e+01 0.0000e+00 -1.0000e+00
        1  1    1    2  501    0 -4.9551471372e+01 +2.0519009043e+01 -1.2993657383e+02 1.4056988037e+02 0.0000000000e+00 0.0000e+00 1.0000e+00
<mgrwt>
<rscale>  1 0.10032758E+04</rscale>
<asrwt>0</asrwt>
<pdfrwt beam="1">  1       21 0.81280133E-01 0.10032758E+04</pdfrwt>
<pdfrwt beam="2">  1        1 0.99309747E-01 0.10032758E+04</pdfrwt>
<totfact> 0.38185643E+02</totfact>
</mgrwt>
</event>
<event>
 6      1 +3.0741590e+01 9.98355300e+02 7.81860800e-03 9.31035100e-02
       -2 -1    0    0    0  501 -0.0000000000e+00 +0.0000000000e+00 +7.4790153916e+02 7.4790153916e+02 0.0000000000e+00 0.0000e+00 -1.0000e+00
        2 -1    0    0  502    0 +0.0000000000e+00 -0.0000000000e+00 -3.7853837168e+02 3.7853837168e+02 0.0000000000e+00 0.0000e+00 1.0000e+00
  5000001  2    1    2    0    0 +2.2363342446e+01 -3.2681480882e+01 +2.9307123277e+02 1.0404826099e+03 9.9756960448e+02 0.0000e+00 0.0000e+00
  5000521  1    3    3    0    0 -1.6887748685e+02 +1.6046099606e+02 +5.9204262700e+02 6.3630323668e+02 1.0000000000e+01 0.0000e+00 -1.0000e+00
 -5000521  1    3    3    0    0 +1.9124082929e+02 -1.9314247694e+02 -2.9897139423e+02 4.0417937324e+02 1.0000000000e+01 0.0000e+00 1.0000e+00
       21  1    1    2  502  501 -2.2363342446e+01 +3.2681480882e+01 +7.6291934711e+01 8.5957300911e+01 0.0000000000e+00 0.0000e+00 1.0000e+00
<mgrwt>
<rscale>  1 0.99835530E+03</rscale>
<asrwt>0</asrwt>
<pdfrwt beam="1">  1        2 0.58236673E-01 0.99835530E+03</pdfrwt>
<pdfrwt beam="2">  1       -2 0.11506178E+00 0.99835530E+03</pdfrwt>
<totfact> 0.49714841E+01</totfact>
</mgrwt>
</event>
<event>
 6      1 +3.0741590e+01 1.06576100e+03 7.81860800e-03 9.23922100e-02
       -2 -1    0    0    0  501 -0.0000000000e+00 +0.0000000000e+00 +4.8564719028e+02 4.8564719028e+02 0.0000000000e+00 0.0000e+00 1.0000e+00
        2 -1    0    0  502    0 +0.0000000000e+00 -0.0000000000e+00 -1.8011829519e+03 1.8011829519e+03 0.0000000000e+00 0.0000e+00 -1.0000e+00
  5000001  2    1    2    0    0 -4.7909518869e+01 -4.4472897973e+02 -1.4681610045e+03 1.8142059234e+03 9.6735061372e+02 0.0000e+00 0.0000e+00
  5000521  1    3    3    0    0 -9.2332984924e+00 +1.2735842752e+02 -1.1524897203e+03 1.1595852613e+03 1.0000000000e+01 0.0000e+00 1.0000e+00
 -5000521  1    3    3    0    0 -3.8676220377e+01 -5.7208740725e+02 -3.1567128426e+02 6.5462066211e+02 1.0000000000e+01 0.0000e+00 -1.0000e+00
       21  1    1    2  502  501 +4.7909518869e+01 +4.4472897973e+02 +1.5262524290e+02 4.7262421879e+02 0.0000000000e+00 0.0000e+00 1.0000e+00
<mgrwt>
<rscale>  1 0.10657609E+04</rscale>
<asrwt>0</asrwt>
<pdfrwt beam="1">  1        2 0.27710507E+00 0.10657609E+04</pdfrwt>
<pdfrwt beam="2">  1       -2 0.74714952E-01 0.10657609E+04</pdfrwt>
<totfact> 0.13786546E+01</totfact>
</mgrwt>
</event>
<event>
 6      1 +3.0741590e+01 9.70364000e+02 7.81860800e-03 9.34166000e-02
       -3 -1    0    0    0  501 -0.0000000000e+00 +0.0000000000e+00 +1.3185588920e+03 1.3185588920e+03 0.0000000000e+00 0.0000e+00 -1.0000e+00
        3 -1    0    0  502    0 +0.0000000000e+00 -0.0000000000e+00 -1.8980196263e+02 1.8980196263e+02 0.0000000000e+00 0.0000e+00 1.0000e+00
  5000001  2    1    2    0    0 -7.7447349443e+00 -2.3445196981e+01 +1.1206243382e+03 1.4823647546e+03 9.7004984411e+02 0.0000e+00 0.0000e+00
  5000521  1    3    3    0    0 +1.9353314528e+02 -1.3960960589e+02 +1.2098721163e+03 1.2332219825e+03 1.0000000000e+01 0.0000e+00 -1.0000e+00
 -5000521  1    3    3    0    0 -2.0127788022e+02 +1.1616440891e+02 -8.9247778115e+01 2.4914277204e+02 1.0000000000e+01 0.0000e+00 1.0000e+00
       21  1    1    2  502  501 +7.7447349443e+00 +2.3445196981e+01 +8.1325912464e+00 2.5996100116e+01 0.0000000000e+00 0.0000e+00 -1.0000e+00
<mgrwt>
<rscale>  1 0.97036403E+03</rscale>
<asrwt>0</asrwt>
<pdfrwt beam="1">  1        3 0.29200303E-01 0.97036403E+03</pdfrwt>
<pdfrwt beam="2">  1       -3 0.20285521E+00 0.97036403E+03</pdfrwt>
<totfact> 0.42109980E+00</totfact>
</mgrwt>
</event>
<event>
 6      1 +3.0741590e+01 1.00057100e+03 7.81860800e-03 9.30791900e-02
        2 -1    0    0  502    0 +0.0000000000e+00 +0.0000000000e+00 +1.1142328890e+03 1.1142328890e+03 0.0000000000e+00 0.0000e+00 1.0000e+00
       -2 -1    0    0    0  501 -0.0000000000e+00 -0.0000000000e+00 -3.0262350839e+02 3.0262350839e+02 0.0000000000e+00 0.0000e+00 -1.0000e+00
  5000001  2    1    2    0    0 +5.7150220788e+01 +2.0920731427e+01 +5.3696529310e+02 1.1355501594e+03 9.9871848573e+02 0.0000e+00 0.0000e+00
  5000521  1    3    3    0    0 -4.4852448751e+02 +1.5003816920e+00 +8.4249569143e+01 4.5648051103e+02 1.0000000000e+01 0.0000e+00 1.0000e+00
 -5000521  1    3    3    0    0 +5.0567470830e+02 +1.9420349735e+01 +4.5271572395e+02 6.7906964835e+02 1.0000000000e+01 0.0000e+00 -1.0000e+00
       21  1    1    2  502  501 -5.7150220788e+01 -2.0920731427e+01 +2.7464408754e+02 2.8130623804e+02 0.0000000000e+00 0.0000e+00 1.0000e+00
<mgrwt>
<rscale>  1 0.10005711E+04</rscale>
<asrwt>0</asrwt>
<pdfrwt beam="1">  1        2 0.17142044E+00 0.10005711E+04</pdfrwt>
<pdfrwt beam="2">  1       -2 0.46557464E-01 0.10005711E+04</pdfrwt>
<totfact> 0.93149338E+01</totfact>
</mgrwt>
</event>
<event>
 6      1 +3.0741590e+01 1.00941100e+03 7.81860800e-03 9.29828300e-02
       -2 -1    0    0    0  501 -0.0000000000e+00 +0.0000000000e+00 +5.8481917684e+02 5.8481917684e+02 0.0000000000e+00 0.0000e+00 1.0000e+00
        2 -1    0    0  502    0 +0.0000000000e+00 -0.0000000000e+00 -5.2733538188e+02 5.2733538188e+02 0.0000000000e+00 0.0000e+00 -1.0000e+00
  5000001  2    1    2    0    0 +7.1797193732e+01 +3.9673237420e+01 +1.0901762399e+02 1.0152807319e+03 1.0060722237e+03 0.0000e+00 0.0000e+00
  5000521  1    3    3    0    0 -1.9431935211e+02 +1.7239421556e+01 -3.9732079970e+02 4.4274261839e+02 1.0000000000e+01 0.0000e+00 -1.0000e+00
 -5000521  1    3    3    0    0 +2.6611654585e+02 +2.2433815864e+01 +5.0633842369e+02 5.7253811347e+02 1.0000000000e+01 0.0000e+00 1.0000e+00
       21  1    1    2  502  501 -7.1797193732e+01 -3.9673237420e+01 -5.1533829033e+01 9.6873826858e+01 0.0000000000e+00 0.0000e+00 -1.0000e+00
<mgrwt>
<rscale>  1 0.10094108E+04</rscale>
<asrwt>0</asrwt>
<pdfrwt beam="1">  1        2 0.81128521E-01 0.10094108E+04</pdfrwt>
<pdfrwt beam="2">  1       -2 0.89972181E-01 0.10094108E+04</pdfrwt>
<totfact> 0.61025946E+01</totfact>
</mgrwt>
</event>
<event>
 6      1 +3.0741590e+01 1.00242900e+03 7.81860800e-03 9.30588500e-02
       21 -1    0    0  501  502 +0.0000000000e+00 +0.0000000000e+00 +1.8980089851e+02 1.8980089851e+02 0.0000000000e+00 0.0000e+00 -1.0000e+00
        1 -1    0    0  502    0 -0.0000000000e+00 -0.0000000000e+00 -2.4249565212e+03 2.4249565212e+03 0.0000000000e+00 0.0000e+00 1.0000e+00
  5000001  2    1    2    0    0 +3.2994361970e+01 -4.0136272283e+00 -2.3180142769e+03 2.5254809184e+03 1.0018777092e+03 0.0000e+00 0.0000e+00
  5000521  1    3    3    0    0 +3.9242100966e+02 -4.1154085299e+01 -3.5947733781e+02 5.3386502410e+02 1.0000000000e+01 0.0000e+00 -1.0000e+00
 -5000521  1    3    3    0    0 -3.5942664769e+02 +3.7140458070e+01 -1.9585369391e+03 1.9916158943e+03 1.0000000000e+01 0.0000e+00 1.0000e+00
        1  1    1    2  501    0 -3.2994361970e+01 +4.0136272283e+00 +8.2858654155e+01 8.9276501352e+01 0.0000000000e+00 0.0000e+00 1.0000e+00
<mgrwt>
<rscale>  1 0.10024289E+04</rscale>
<asrwt>0</asrwt>
<pdfrwt beam="1">  1       21 0.29200139E-01 0.10024289E+04</pdfrwt>
<pdfrwt beam="2">  1        1 0.37307022E+00 0.10024289E+04</pdfrwt>
<totfact> 0.17631867E+02</totfact>
</mgrwt>
</event>
<event>
 6      1 +3.0741590e+01 9.63857900e+02 7.81860800e-03 9.34909800e-02
       -2 -1    0    0    0  501 -0.0000000000e+00 +0.0000000000e+00 +6.1066027955e+02 6.1066027955e+02 0.0000000000e+00 0.0000e+00 -1.0000e+00
        2 -1    0    0  502    0 +0.0000000000e+00 -0.0000000000e+00 -4.4147565525e+02 4.4147565525e+02 0.0000000000e+00 0.0000e+00 1.0000e+00
  5000001  2    1    2    0    0 +9.0957751722e+00 -7.3822710742e+01 +1.6243560354e+02 9.7744942311e+02 9.6098362301e+02 0.0000e+00 0.0000e+00
  5000521  1    3    3    0    0 -1.2140937708e+02 -5.0174298085e+02 +9.1878463209e+01 5.2443103233e+02 1.0000000000e+01 0.0000e+00 1.0000e+00
 -5000521  1    3    3    0    0 +1.3050515225e+02 +4.2792027011e+02 +7.0557140335e+01 4.5301839078e+02 1.0000000000e+01 0.0000e+00 -1.0000e+00
       21  1    1    2  502  501 -9.0957751722e+00 +7.3822710742e+01 +6.7490207502e+00 7.4686511689e+01 0.0000000000e+00 0.0000e+00 1.0000e+00
<mgrwt>
<rscale>  1 0.96385790E+03</rscale>
<asrwt>0</asrwt>
<pdfrwt beam="1">  1        2 0.67919332E-01 0.96385790E+03</pdfrwt>
<pdfrwt beam="2">  1       -2 0.93947735E-01 0.96385790E+03</pdfrwt>
<totfact> 0.68004211E+01</totfact>
</mgrwt>
</event>
<event>
 6      1 +3.0741590e+01 1.01553100e+03 7.81860800e-03 9.29167300e-02
       -1 -1    0    0    0  501 -0.0000000000e+00 +0.0000000000e+00 +3.0908012892e+02 3.0908012892e+02 0.0000000000e+00 0.0000e+00 -1.0000e+00
        1 -1    0    0  502    0 +0.0000000000e+00 -0.0000000000e+00 -1.2813345659e+03 1.2813345659e+03 0.0000000000e+00 0.0000e+00 1.0000e+00
  5000001  2    1    2    0    0 -4.8625508859e+01 -1.5659873015e+02 -5.9001260612e+02 1.1744863120e+03 1.0022053778e+03 0.0000e+00 0.0000e+00
  5000521  1    3    3    0    0 +3.6682606486e+02 -3.9123377400e+02 -3.4796205713e+02 6.3937690057e+02 1.0000000000e+01 0.0000e+00 -1.0000e+00
 -5000521  1    3    3    0    0 -4.1545157371e+02 +2.3463504385e+02 -2.4205054898e+02 5.3510941140e+02 1.0000000000e+01 0.0000e+00 1.0000e+00
       21  1    1    2  502  501 +4.8625508859e+01 +1.5659873015e+02 -3.8224183090e+02 4.1592838288e+02 0.0000000000e+00 0.0000e+00 1.0000e+00
<mgrwt>
<rscale>  1 0.10155310E+04</rscale>
<asrwt>0</asrwt>
<pdfrwt beam="1">  1        1 0.19712839E+00 0.10155310E+04</pdfrwt>
<pdfrwt beam="2">  1       -1 0.47550789E-01 0.10155310E+04</pdfrwt>
<totfact> 0.41288625E+01</totfact>
</mgrwt>
</event>
<event>
 6      1 +3.0741590e+01 1.00456700e+03 7.81860800e-03 9.30355000e-02
       -4 -1    0    0    0  501 -0.0000000000e+00 +0.0000000000e+00 +2.8334927343e+02 2.8334927343e+02 0.0000000000e+00 0.0000e+00 1.0000e+00
        4 -1    0    0  502    0 +0.0000000000e+00 -0.0000000000e+00 -1.2257768180e+03 1.2257768180e+03 0.0000000000e+00 0.0000e+00 -1.0000e+00
  5000001  2    1    2    0    0 -8.0670540871e+01 +7.8603887813e+01 -9.6642734549e+02 1.3939640413e+03 9.9823225104e+02 0.0000e+00 0.0000e+00
  5000521  1    3    3    0    0 +1.4657087918e+02 -4.2061688509e+02 -5.3381461783e+02 6.9531261520e+02 1.0000000000e+01 0.0000e+00 1.0000e+00
 -5000521  1    3    3    0    0 -2.2724142006e+02 +4.9922077290e+02 -4.3261272766e+02 6.9865142612e+02 1.0000000000e+01 0.0000e+00 -1.0000e+00
       21  1    1    2  502  501 +8.0670540871e+01 -7.8603887813e+01 +2.3999800911e+01 1.1516205012e+02 0.0000000000e+00 0.0000e+00 -1.0000e+00
<mgrwt>
<rscale>  1 0.10045665E+04</rscale>
<asrwt>0</asrwt>
<pdfrwt beam="1">  1        4 0.18858105E+00 0.10045665E+04</pdfrwt>
<pdfrwt beam="2">  1       -4 0.43592196E-01 0.10045665E+04</pdfrwt>
<totfact> 0.15883166E+00</totfact>
</mgrwt>
</event>
<event>
 6      1 +3.0741590e+01 9.92932000e+02 7.81860800e-03 9.31633100e-02
       -3 -1    0    0    0  501 -0.0000000000e+00 +0.0000000000e+00 +1.0748164452e+03 1.0748164452e+03 0.0000000000e+00 0.0000e+00 -1.0000e+00
       21 -1    0    0  501  502 +0.0000000000e+00 -0.0000000000e+00 -2.7392419969e+02 2.7392419969e+02 0.0000000000e+00 0.0000e+00 1.0000e+00
  5000001  2    1    2    0    0 -3.4335840362e+01 -8.4675704822e+01 +7.1754810961e+02 1.2250670022e+03 9.8871884034e+02 0.0000e+00 0.0000e+00
  5000521  1    3    3    0    0 -3.7761743296e+02 +1.3306946016e+02 +7.1371744484e+02 8.1841004269e+02 1.0000000000e+01 0.0000e+00 1.0000e+00
 -5000521  1    3    3    0    0 +3.4328159259e+02 -2.1774516499e+02 +3.8306647688e+00 4.0665695947e+02 1.0000000000e+01 0.0000e+00 -1.0000e+00
       -3  1    1    2    0  502 +3.4335840362e+01 +8.4675704822e+01 +8.3344135894e+01 1.2367364274e+02 0.0000000000e+00 0.0000e+00 -1.0000e+00
<mgrwt>
<rscale>  1 0.99293196E+03</rscale>
<asrwt>0</asrwt>
<pdfrwt beam="1">  1       21 0.42142185E-01 0.99293196E+03</pdfrwt>
<pdfrwt beam="2">  1       -3 0.16535637E+00 0.99293196E+03</pdfrwt>
<totfact> 0.62110010E+01</totfact>
</mgrwt>
</event>
<event>
 6      1 +3.0741590e+01 1.00279500e+03 7.81860800e-03 9.30548500e-02
        2 -1    0    0  502    0 +0.0000000000e+00 +0.0000000000e+00 +1.1418314202e+03 1.1418314202e+03 0.0000000000e+00 0.0000e+00 -1.0000e+00
       -2 -1    0    0    0  501 -0.0000000000e+00 -0.0000000000e+00 -2.4790982770e+02 2.4790982770e+02 0.0000000000e+00 0.0000e+00 1.0000e+00
  5000001  2    1    2    0    0 +1.5287866431e+01 +1.5633777933e+01 +7.7109684783e+02 1.2649852790e+03 1.0025563692e+03 0.0000e+00 0.0000e+00
  5000521  1    3    3    0    0 -4.5145492761e+01 -1.9854628436e+02 +9.5475192920e+02 9.7627352154e+02 1.0000000000e+01 0.0000e+00 -1.0000e+00
 -5000521  1    3    3    0    0 +6.0433359192e+01 +2.1418006230e+02 -1.8365508137e+02 2.8871175747e+02 1.0000000000e+01 0.0000e+00 1.0000e+00
       21  1    1    2  502  501 -1.5287866431e+01 -1.5633777933e+01 +1.2282474468e+02 1.2475596891e+02 0.0000000000e+00 0.0000e+00 -1.0000e+00
<mgrwt>
<rscale>  1 0.10027948E+04</rscale>
<asrwt>0</asrwt>
<pdfrwt beam="1">  1        2 0.17566637E+00 0.10027948E+04</pdfrwt>
<pdfrwt beam="2">  1       -2 0.38139974E-01 0.10027948E+04</pdfrwt>
<totfact> 0.13291487E+02</totfact>
</mgrwt>
</event>
<event>
 6      1 +3.0741590e+01 1.00108600e+03 7.81860800e-03 9.30735400e-02
        2 -1    0    0  502    0 +0.0000000000e+00 +0.0000000000e+00 +2.1868651762e+03 2.1868651762e+03 0.0000000000e+00 0.0000e+00 1.0000e+00
       -2 -1    0    0    0  501 -0.0000000000e+00 -0.0000000000e+00 -1.5236337940e+02 1.5236337940e+02 0.0000000000e+00 0.0000e+00 -1.0000e+00
  5000001  2    1    2    0    0 -6.0477603931e+01 -9.5702778069e+01 +1.9678593025e+03 2.2078596690e+03 9.9466452714e+02 0.0000e+00 0.0000e+00
  5000521  1    3    3    0    0 -4.3229838951e+02 +1.6196793331e+02 +5.4251954755e+02 7.1242049975e+02 1.0000000000e+01 0.0000e+00 -1.0000e+00
 -5000521  1    3    3    0    0 +3.7182078558e+02 -2.5767071138e+02 +1.4253397549e+03 1.4954391693e+03 1.0000000000e+01 0.0000e+00 1.0000e+00
       21  1    1    2  502  501 +6.0477603931e+01 +9.5702778069e+01 +6.6642494328e+01 1.3136888657e+02 0.0000000000e+00 0.0000e+00 -1.0000e+00
<mgrwt>
<rscale>  1 0.10010865E+04</rscale>
<asrwt>0</asrwt>
<pdfrwt beam="1">  1        2 0.33644077E+00 0.10010865E+04</pdfrwt>
<pdfrwt beam="2">  1       -2 0.23440521E-01 0.10010865E+04</pdfrwt>
<totfact> 0.85070633E+01</totfact>
</mgrwt>
</event>
<event>
 6      1 +3.0741590e+01 9.94000400e+02 7.81860800e-03 9.31515000e-02
        2 -1    0    0  502    0 +0.0000000000e+00 +0.0000000000e+00 +6.1800485838e+02 6.1800485838e+02 0.0000000000e+00 0.0000e+00 -1.0000e+00
       -2 -1    0    0    0  501 -0.0000000000e+00 -0.0000000000e+00 -4.6778449375e+02 4.6778449375e+02 0.0000000000e+00 0.0000e+00 1.0000e+00
  5000001  2    1    2    0    0 -4.1141825057e+01 -7.0152648821e+01 +1.3709121178e+02 1.0034096304e+03 9.9066787675e+02 0.0000e+00 0.0000e+00
  5000521  1    3    3    0    0 -2.0377935319e+02 -5.5570924899e+01 -3.9429108490e+02 4.4741436288e+02 1.0000000000e+01 0.0000e+00 1.0000e+00
 -5000521  1    3    3    0    0 +1.6263752813e+02 -1.4581723922e+01 +5.3138229668e+02 5.5599526747e+02 1.0000000000e+01 0.0000e+00 -1.0000e+00
       21  1    1    2  502  501 +4.1141825057e+01 +7.0152648821e+01 +1.3129152857e+01 8.2379721779e+01 0.0000000000e+00 0.0000e+00 1.0000e+00
<mgrwt>
<rscale>  1 0.99400045E+03</rscale>
<asrwt>0</asrwt>
<pdfrwt beam="1">  1        2 0.95077670E-01 0.99400045E+03</pdfrwt>
<pdfrwt beam="2">  1       -2 0.71966845E-01 0.99400045E+03</pdfrwt>
<totfact> 0.83578613E+01</totfact>
</mgrwt>
</event>
<event>
 6      1 +3.0741590e+01 1.00552800e+03 7.81860800e-03 9.30250300e-02
       -2 -1    0    0    0  501 -0.0000000000e+00 +0.0000000000e+00 +2.9490073150e+02 2.9490073150e+02 0.0000000000e+00 0.0000e+00 -1.0000e+00
        2 -1    0    0  502    0 +0.0000000000e+00 -0.0000000000e+00 -1.2978612362e+03 1.2978612362e+03 0.0000000000e+00 0.0000e+00 1.0000e+00
  5000001  2    1    2    0    0 +1.8526388137e+01 -2.3503224051e+01 -1.1005204576e+03 1.4907150519e+03 1.0050823149e+03 0.0000e+00 0.0000e+00
  5000521  1    3    3    0    0 -2.4273526878e+02 +3.6954716277e+01 -1.1843495580e+03 1.2095742793e+03 1.0000000000e+01 0.0000e+00 1.0000e+00
 -5000521  1    3    3    0    0 +2.6126165692e+02 -6.0457940328e+01 +8.3829100351e+01 2.8114077255e+02 1.0000000000e+01 0.0000e+00 -1.0000e+00
       21  1    1    2  502  501 -1.8526388137e+01 +2.3503224051e+01 +9.7559952953e+01 1.0204691577e+02 0.0000000000e+00 0.0000e+00 -1.0000e+00
<mgrwt>
<rscale>  1 0.10055278E+04</rscale>
<asrwt>0</asrwt>
<pdfrwt beam="1">  1        2 0.19967096E+00 0.10055278E+04</pdfrwt>
<pdfrwt beam="2">  1       -2 0.45369344E-01 0.10055278E+04</pdfrwt>
<totfact> 0.76196877E+01</totfact>
</mgrwt>
</event>
<event>
 6      1 +3.0741590e+01 1.00439700e+03 7.81860800e-03 9.30373600e-02
       -2 -1    0    0    0  501 -0.0000000000e+00 +0.0000000000e+00 +1.3170954404e+02 1.3170954404e+02 0.0000000000e+00 0.0000e+00 -1.0000e+00
        2 -1    0    0  502    0 +0.0000000000e+00 -0.0000000000e+00 -2.0456083737e+03 2.0456083737e+03 0.0000000000e+00 0.0000e+00 1.0000e+00
  5000001  2    1    2    0    0 +3.9267969184e+00 -2.1258586398e+01 -1.9057264270e+03 2.1542065484e+03 1.0041639762e+03 0.0000e+00 0.0000e+00
  5000521  1    3    3    0    0 -7.5082444728e+00 -2.0154539497e+02 +3.5103884094e+01 2.0496146625e+02 1.0000000000e+01 0.0000e+00 -1.0000e+00
 -5000521  1    3    3    0    0 +1.1435041391e+01 +1.8028680857e+02 -1.9408303111e+03 1.9492450821e+03 1.0000000000e+01 0.0000e+00 1.0000e+00
       21  1    1    2  502  501 -3.9267969184e+00 +2.1258586398e+01 -8.1724026039e+00 2.3111369366e+01 0.0000000000e+00 0.0000e+00 1.0000e+00
<mgrwt>
<rscale>  1 0.10043967E+04</rscale>
<asrwt>0</asrwt>
<pdfrwt beam="1">  1        2 0.31470895E+00 0.10043967E+04</pdfrwt>
<pdfrwt beam="2">  1       -2 0.20263009E-01 0.10043967E+04</pdfrwt>
<totfact> 0.13194524E+02</totfact>
</mgrwt>
</event>
<event>
 6      1 +3.0741590e+01 8.68283600e+02 7.81860800e-03 9.46612100e-02
       -2 -1    0    0    0  501 -0.0000000000e+00 +0.0000000000e+00 +3.0191303262e+02 3.0191303262e+02 0.0000000000e+00 0.0000e+00 -1.0000e+00
        2 -1    0    0  502    0 +0.0000000000e+00 -0.0000000000e+00 -7.6116587034e+02 7.6116587034e+02 0.0000000000e+00 0.0000e+00 1.0000e+00
  5000001  2    1    2    0    0 -3.8066369533e+01 -3.9048268780e+01 -3.4097421871e+02 9.3283433493e+02 8.6656947951e+02 0.0000e+00 0.0000e+00
  5000521  1    3    3    0    0 +4.0058076272e+02 -9.4234576734e+01 -7.9959534880e+01 4.1933117000e+02 1.0000000000e+01 0.0000e+00 -1.0000e+00
 -5000521  1    3    3    0    0 -4.3864713225e+02 +5.5186307954e+01 -2.6101468383e+02 5.1350316493e+02 1.0000000000e+01 0.0000e+00 1.0000e+00
       21  1    1    2  502  501 +3.8066369533e+01 +3.9048268780e+01 -1.1827861901e+02 1.3024456802e+02 0.0000000000e+00 0.0000e+00 -1.0000e+00
<mgrwt>
<rscale>  1 0.86828364E+03</rscale>
<asrwt>0</asrwt>
<pdfrwt beam="1">  1        2 0.11710244E+00 0.86828364E+03</pdfrwt>
<pdfrwt beam="2">  1       -2 0.46448159E-01 0.86828364E+03</pdfrwt>
<totfact> 0.16235523E+02</totfact>
</mgrwt>
</event>
<event>
 6      1 +3.0741590e+01 9.91040700e+02 7.81860800e-03 9.31842600e-02
       -1 -1    0    0    0  501 -0.0000000000e+00 +0.0000000000e+00 +2.2574822077e+02 2.2574822077e+02 0.0000000000e+00 0.0000e+00 -1.0000e+00
       21 -1    0    0  501  502 +0.0000000000e+00 -0.0000000000e+00 -1.3462858504e+03 1.3462858504e+03 0.0000000000e+00 0.0000e+00 1.0000e+00
  5000001  2    1    2    0    0 -1.0694226937e+02 -3.0970975986e+01 -9.9807796277e+02 1.4065281186e+03 9.8476691572e+02 0.0000e+00 0.0000e+00
  5000521  1    3    3    0    0 -8.1225113119e+01 -3.4532023866e+02 +5.0669331153e+00 3.5492148434e+02 1.0000000000e+01 0.0000e+00 -1.0000e+00
 -5000521  1    3    3    0    0 -2.5717156250e+01 +3.1434926268e+02 -1.0031448959e+03 1.0516066343e+03 1.0000000000e+01 0.0000e+00 1.0000e+00
       -1  1    1    2    0  502 +1.0694226937e+02 +3.0970975986e+01 -1.2245966684e+02 1.6550595257e+02 0.0000000000e+00 0.0000e+00 -1.0000e+00
<mgrwt>
<rscale>  1 0.99104073E+03</rscale>
<asrwt>0</asrwt>
<pdfrwt beam="1">  1       21 0.20712090E+00 0.99104073E+03</pdfrwt>
<pdfrwt beam="2">  1       -1 0.34730496E-01 0.99104073E+03</pdfrwt>
<totfact> 0.66963275E+01</totfact>
</mgrwt>
</event>
<event>
 6      1 +3.0741590e+01 1.01662900e+03 7.81860800e-03 9.29049200e-02
       -2 -1    0    0    0  501 -0.0000000000e+00 +0.0000000000e+00 +3.6132832683e+02 3.6132832683e+02 0.0000000000e+00 0.0000e+00 -1.0000e+00
        2 -1    0    0  502    0 +0.0000000000e+00 -0.0000000000e+00 -7.7347126448e+02 7.7347126448e+02 0.0000000000e+00 0.0000e+00 1.0000e+00
  5000001  2    1    2    0    0 -2.3300209244e+01 +2.3404169552e+01 -3.7138346992e+02 1.0823401869e+03 1.0160924877e+03 0.0000e+00 0.0000e+00
  5000521  1    3    3    0    0 -4.0768454525e+02 -1.7674337720e+02 +8.5420236719e+01 4.5259421855e+02 1.0000000000e+01 0.0000e+00 -1.0000e+00
 -5000521  1    3    3    0    0 +3.8438433600e+02 +2.0014754676e+02 -4.5680370664e+02 6.2974596834e+02 1.0000000000e+01 0.0000e+00 1.0000e+00
       21  1    1    2  502  501 +2.3300209244e+01 -2.3404169552e+01 -4.0759467735e+01 5.2459404431e+01 0.0000000000e+00 0.0000e+00 -1.0000e+00
<mgrwt>
<rscale>  1 0.10166290E+04</rscale>
<asrwt>0</asrwt>
<pdfrwt beam="1">  1        2 0.11899558E+00 0.10166290E+04</pdfrwt>
<pdfrwt beam="2">  1       -2 0.55588974E-01 0.10166290E+04</pdfrwt>
<totfact> 0.10924334E+02</totfact>
</mgrwt>
</event>
<event>
 6      1 +3.0741590e+01 1.07231400e+03 7.81860800e-03 9.23260400e-02
       21 -1    0    0  501  502 +0.0000000000e+00 +0.0000000000e+00 +1.0307206190e+03 1.0307206190e+03 0.0000000000e+00 0.0000e+00 -1.0000e+00
        1 -1    0    0  502    0 -0.0000000000e+00 -0.0000000000e+00 -6.6573044239e+02 6.6573044239e+02 0.0000000000e+00 0.0000e+00 1.0000e+00
  5000001  2    1    2    0    0 -1.6220445985e+02 +1.9687585477e+02 -1.8688098633e+02 1.0884772384e+03 1.0415314716e+03 0.0000e+00 0.0000e+00
  5000521  1    3    3    0    0 -2.6137359963e+02 -1.5113423560e+02 -5.1684840663e+02 5.9865682256e+02 1.0000000000e+01 0.0000e+00 1.0000e+00
 -5000521  1    3    3    0    0 +9.9169139781e+01 +3.4801009037e+02 +3.2996742030e+02 4.8982041581e+02 1.0000000000e+01 0.0000e+00 -1.0000e+00
        1  1    1    2  501    0 +1.6220445985e+02 -1.9687585477e+02 +5.5187116299e+02 6.0797382306e+02 0.0000000000e+00 0.0000e+00 1.0000e+00
<mgrwt>
<rscale>  1 0.10723144E+04</rscale>
<asrwt>0</asrwt>
<pdfrwt beam="1">  1       21 0.15857240E+00 0.10723144E+04</pdfrwt>
<pdfrwt beam="2">  1        1 0.10242007E+00 0.10723144E+04</pdfrwt>
<totfact> 0.64662223E+01</totfact>
</mgrwt>
</event>
<event>
 6      1 +3.0741590e+01 1.04601900e+03 7.81860800e-03 9.25946400e-02
       -1 -1    0    0    0  501 -0.0000000000e+00 +0.0000000000e+00 +1.7234151156e+02 1.7234151156e+02 0.0000000000e+00 0.0000e+00 -1.0000e+00
        1 -1    0    0  502    0 +0.0000000000e+00 -0.0000000000e+00 -2.6947605741e+03 2.6947605741e+03 0.0000000000e+00 0.0000e+00 1.0000e+00
  5000001  2    1    2    0    0 -2.9329959404e+02 -7.3325606809e+01 -1.7665039676e+03 2.0529713054e+03 1.0013758621e+03 0.0000e+00 0.0000e+00
  5000521  1    3    3    0    0 -4.6806686777e+02 +5.6602342629e+01 -2.7559385642e+02 5.4620727896e+02 1.0000000000e+01 0.0000e+00 -1.0000e+00
 -5000521  1    3    3    0    0 +1.7476727373e+02 -1.2992794944e+02 -1.4909101111e+03 1.5067640265e+03 1.0000000000e+01 0.0000e+00 1.0000e+00
       21  1    1    2  502  501 +2.9329959404e+02 +7.3325606809e+01 -7.5591509494e+02 8.1413078018e+02 0.0000000000e+00 0.0000e+00 1.0000e+00
<mgrwt>
<rscale>  1 0.10460186E+04</rscale>
<asrwt>0</asrwt>
<pdfrwt beam="1">  1        1 0.41457855E+00 0.10460186E+04</pdfrwt>
<pdfrwt beam="2">  1       -1 0.26514079E-01 0.10460186E+04</pdfrwt>
<totfact> 0.12699217E+01</totfact>
</mgrwt>
</event>
<event>
 6      1 +3.0741590e+01 9.95027500e+02 7.81860800e-03 9.31401500e-02
        2 -1    0    0  502    0 +0.0000000000e+00 +0.0000000000e+00 +5.1834486514e+02 5.1834486514e+02 0.0000000000e+00 0.0000e+00 -1.0000e+00
       -2 -1    0    0    0  501 -0.0000000000e+00 -0.0000000000e+00 -5.1775050657e+02 5.1775050657e+02 0.0000000000e+00 0.0000e+00 1.0000e+00
  5000001  2    1    2    0    0 +3.3600902203e+01 +1.7709376493e+01 +1.5876345121e+01 9.9515417293e+02 9.9430233175e+02 0.0000e+00 0.0000e+00
  5000521  1    3    3    0    0 +4.0434422778e+02 -1.3534947096e+02 +2.8415736248e+02 5.1250281997e+02 1.0000000000e+01 0.0000e+00 -1.0000e+00
 -5000521  1    3    3    0    0 -3.7074332557e+02 +1.5305884745e+02 -2.6828101736e+02 4.8265135296e+02 1.0000000000e+01 0.0000e+00 1.0000e+00
       21  1    1    2  502  501 -3.3600902203e+01 -1.7709376493e+01 -1.5281986552e+01 4.0941198781e+01 0.0000000000e+00 0.0000e+00 -1.0000e+00
<mgrwt>
<rscale>  1 0.99502752E+03</rscale>
<asrwt>0</asrwt>
<pdfrwt beam="1">  1        2 0.79745364E-01 0.99502752E+03</pdfrwt>
<pdfrwt beam="2">  1       -2 0.79653924E-01 0.99502752E+03</pdfrwt>
<totfact> 0.82324029E+01</totfact>
</mgrwt>
</event>
<event>
 6      1 +3.0741590e+01 1.01746800e+03 7.81860800e-03 9.28959100e-02
       21 -1    0    0  501  502 +0.0000000000e+00 +0.0000000000e+00 +2.8318582122e+02 2.8318582122e+02 0.0000000000e+00 0.0000e+00 -1.0000e+00
        1 -1    0    0  502    0 -0.0000000000e+00 -0.0000000000e+00 -1.2023244856e+03 1.2023244856e+03 0.0000000000e+00 0.0000e+00 1.0000e+00
  5000001  2    1    2    0    0 +1.4582746181e+02 -2.1194581581e+01 -8.3186952312e+02 1.3142480462e+03 1.0067403660e+03 0.0000e+00 0.0000e+00
  5000521  1    3    3    0    0 -1.3123183817e+02 -1.7066611933e+02 -9.5279514414e+02 9.7686606366e+02 1.0000000000e+01 0.0000e+00 1.0000e+00
 -5000521  1    3    3    0    0 +2.7705929998e+02 +1.4947153775e+02 +1.2092562102e+02 3.3738198251e+02 1.0000000000e+01 0.0000e+00 -1.0000e+00
        1  1    1    2  501    0 -1.4582746181e+02 +2.1194581581e+01 -8.7269141257e+01 1.7126226064e+02 0.0000000000e+00 0.0000e+00 1.0000e+00
<mgrwt>
<rscale>  1 0.10174679E+04</rscale>
<asrwt>0</asrwt>
<pdfrwt beam="1">  1       21 0.43567049E-01 0.10174679E+04</pdfrwt>
<pdfrwt beam="2">  1        1 0.18497300E+00 0.10174679E+04</pdfrwt>
<totfact> 0.53020350E+02</totfact>
</mgrwt>
</event>
<event>
 6      1 +3.0741590e+01 9.95462800e+02 7.81860800e-03 9.31353500e-02
        1 -1    0    0  502    0 +0.0000000000e+00 +0.0000000000e+00 +9.0811501863e+02 9.0811501863e+02 0.0000000000e+00 0.0000e+00 -1.0000e+00
       -1 -1    0    0    0  501 -0.0000000000e+00 -0.0000000000e+00 -2.9283942263e+02 2.9283942263e+02 0.0000000000e+00 0.0000e+00 1.0000e+00
  5000001  2    1    2    0    0 +1.0500363066e+01 -2.6100123973e+01 +6.1952748634e+02 1.1725018022e+03 9.9506517164e+02 0.0000e+00 0.0000e+00
  5000521  1    3    3    0    0 +2.5119799577e+02 -4.2235118861e+02 +4.8294924943e+02 6.8907251949e+02 1.0000000000e+01 0.0000e+00 -1.0000e+00
 -5000521  1    3    3    0    0 -2.4069763270e+02 +3.9625106464e+02 +1.3657823691e+02 4.8342928274e+02 1.0000000000e+01 0.0000e+00 1.0000e+00
       21  1    1    2  502  501 -1.0500363066e+01 +2.6100123973e+01 -4.2518903334e+00 2.8452639022e+01 0.0000000000e+00 0.0000e+00 -1.0000e+00
<mgrwt>
<rscale>  1 0.99546279E+03</rscale>
<asrwt>0</asrwt>
<pdfrwt beam="1">  1        1 0.13971000E+00 0.99546279E+03</pdfrwt>
<pdfrwt beam="2">  1       -1 0.45052219E-01 0.99546279E+03</pdfrwt>
<totfact> 0.87772883E+01</totfact>
</mgrwt>
</event>
<event>
 6      1 +3.0741590e+01 9.98469400e+02 7.81860800e-03 9.31022500e-02
        2 -1    0    0  502    0 -0.0000000000e+00 +0.0000000000e+00 +2.0984994179e+03 2.0984994179e+03 0.0000000000e+00 0.0000e+00 -1.0000e+00
       21 -1    0    0  501  502 +0.0000000000e+00 -0.0000000000e+00 -1.4530691054e+02 1.4530691054e+02 0.0000000000e+00 0.0000e+00 1.0000e+00
  5000001  2    1    2    0    0 -2.1878390002e+01 -5.3489494948e+01 +1.9438154168e+03 2.1852595963e+03 9.9679553504e+02 0.0000e+00 0.0000e+00
  5000521  1    3    3    0    0 -1.5334000998e+02 -3.2198814064e+02 +1.8312145524e+03 1.8656463379e+03 1.0000000000e+01 0.0000e+00 -1.0000e+00
 -5000521  1    3    3    0    0 +1.3146161998e+02 +2.6849864569e+02 +1.1260086441e+02 3.1961325837e+02 1.0000000000e+01 0.0000e+00 1.0000e+00
        2  1    1    2  501    0 +2.1878390002e+01 +5.3489494948e+01 +9.3770905890e+00 5.8546732161e+01 0.0000000000e+00 0.0000e+00 -1.0000e+00
<mgrwt>
<rscale>  1 0.99846939E+03</rscale>
<asrwt>0</asrwt>
<pdfrwt beam="1">  1       21 0.22354911E-01 0.99846939E+03</pdfrwt>
<pdfrwt beam="2">  1        2 0.32284604E+00 0.99846939E+03</pdfrwt>
<totfact> 0.13023817E+03</totfact>
</mgrwt>
</event>
<event>
 6      1 +3.0741590e+01 9.14103900e+02 7.81860800e-03 9.40812100e-02
        2 -1    0    0  502    0 +0.0000000000e+00 +0.0000000000e+00 +9.2096549217e+02 9.2096549217e+02 0.0000000000e+00 0.0000e+00 1.0000e+00
       -2 -1    0    0    0  501 -0.0000000000e+00 -0.0000000000e+00 -4.6689412420e+02 4.6689412420e+02 0.0000000000e+00 0.0000e+00 -1.0000e+00
  5000001  2    1    2    0    0 +7.2484641184e+01 +1.7130077599e+02 +1.8562458192e+01 9.1429231433e+02 8.9497926910e+02 0.0000e+00 0.0000e+00
  5000521  1    3    3    0    0 +1.1006397576e+02 -3.3929259573e+02 -1.3211795306e+02 3.8051110076e+02 1.0000000000e+01 0.0000e+00 1.0000e+00
 -5000521  1    3    3    0    0 -3.7579334578e+01 +5.1059337171e+02 +1.5068041125e+02 5.3378121357e+02 1.0000000000e+01 0.0000e+00 -1.0000e+00
       21  1    1    2  502  501 -7.2484641184e+01 -1.7130077599e+02 +4.3550890978e+02 4.7356730204e+02 0.0000000000e+00 0.0000e+00 -1.0000e+00
<mgrwt>
<rscale>  1 0.91410386E+03</rscale>
<asrwt>0</asrwt>
<pdfrwt beam="1">  1        2 0.14168700E+00 0.91410386E+03</pdfrwt>
<pdfrwt beam="2">  1       -2 0.71829865E-01 0.91410386E+03</pdfrwt>
<totfact> 0.49967606E+01</totfact>
</mgrwt>
</event>
<event>
 6      1 +3.0741590e+01 1.00240400e+03 7.81860800e-03 9.30591200e-02
        2 -1    0    0  502    0 +0.0000000000e+00 +0.0000000000e+00 +1.1473452596e+03 1.1473452596e+03 0.0000000000e+00 0.0000e+00 -1.0000e+00
       -2 -1    0    0    0  501 -0.0000000000e+00 -0.0000000000e+00 -2.8512220512e+02 2.8512220512e+02 0.0000000000e+00 0.0000e+00 1.0000e+00
  5000001  2    1    2    0    0 +3.9081854366e+01 +2.1183419653e+01 +9.1930102619e+02 1.3601209135e+03 1.0014181913e+03 0.0000e+00 0.0000e+00
  5000521  1    3    3    0    0 -1.2559720742e+02 -1.9442088367e+02 +1.0382035433e+03 1.0637390355e+03 1.0000000000e+01 0.0000e+00 -1.0000e+00
 -5000521  1    3    3    0    0 +1.6467906179e+02 +2.1560430332e+02 -1.1890251706e+02 2.9638187793e+02 1.0000000000e+01 0.0000e+00 1.0000e+00
       21  1    1    2  502  501 -3.9081854366e+01 -2.1183419653e+01 -5.7077971757e+01 7.2346551188e+01 0.0000000000e+00 0.0000e+00 1.0000e+00
<mgrwt>
<rscale>  1 0.10024044E+04</rscale>
<asrwt>0</asrwt>
<pdfrwt beam="1">  1        2 0.17651465E+00 0.10024044E+04</pdfrwt>
<pdfrwt beam="2">  1       -2 0.43864955E-01 0.10024044E+04</pdfrwt>
<totfact> 0.10017337E+02</totfact>
</mgrwt>
</event>
<event>
 6      1 +3.0741590e+01 1.00012600e+03 7.81860800e-03 9.30840700e-02
       -2 -1    0    0    0  501 -0.0000000000e+00 +0.0000000000e+00 +4.8932576758e+02 4.8932576758e+02 0.0000000000e+00 0.0000e+00 1.0000e+00
        2 -1    0    0  502    0 +0.0000000000e+00 -0.0000000000e+00 -5.6506395239e+02 5.6506395239e+02 0.0000000000e+00 0.0000e+00 -1.0000e+00
  5000001  2    1    2    0    0 -4.4581432718e+00 +3.3837837100e+01 -1.0984329887e+02 1.0061400250e+03 9.9954355849e+02 0.0000e+00 0.0000e+00
  5000521  1    3    3    0    0 -4.2518321231e+02 +1.5936775224e+02 -2.8180952024e+02 5.3450486451e+02 1.0000000000e+01 0.0000e+00 -1.0000e+00
 -5000521  1    3    3    0    0 +4.2072506904e+02 -1.2552991514e+02 +1.7196622137e+02 4.7163516048e+02 1.0000000000e+01 0.0000e+00 1.0000e+00
       21  1    1    2  502  501 +4.4581432718e+00 -3.3837837100e+01 +3.4105114055e+01 4.8249694981e+01 0.0000000000e+00 0.0000e+00 -1.0000e+00
<mgrwt>
<rscale>  1 0.10001261E+04</rscale>
<asrwt>0</asrwt>
<pdfrwt beam="1">  1        2 0.86932916E-01 0.10001261E+04</pdfrwt>
<pdfrwt beam="2">  1       -2 0.75280887E-01 0.10001261E+04</pdfrwt>
<totfact> 0.84300587E+01</totfact>
</mgrwt>
</event>
<event>
 6      1 +3.0741590e+01 1.00249300e+03 7.81860800e-03 9.30581500e-02
        2 -1    0    0  502    0 +0.0000000000e+00 +0.0000000000e+00 +6.1315140136e+02 6.1315140136e+02 0.0000000000e+00 0.0000e+00 -1.0000e+00
       -2 -1    0    0    0  501 -0.0000000000e+00 -0.0000000000e+00 -8.9974414647e+02 8.9974414647e+02 0.0000000000e+00 0.0000e+00 1.0000e+00
  5000001  2    1    2    0    0 +3.4637277509e+01 -5.2038395458e+01 -6.1665298300e+02 1.1769677338e+03 1.0005420578e+03 0.0000e+00 0.0000e+00
  5000521  1    3    3    0    0 +3.5800321059e+02 -3.4286620270e+02 -1.0758605931e+02 5.0734435239e+02 1.0000000000e+01 0.0000e+00 -1.0000e+00
 -5000521  1    3    3    0    0 -3.2336593308e+02 +2.9082780724e+02 -5.0906692369e+02 6.6962338141e+02 1.0000000000e+01 0.0000e+00 1.0000e+00
       21  1    1    2  502  501 -3.4637277509e+01 +5.2038395458e+01 +3.3006023789e+02 3.3592781402e+02 0.0000000000e+00 0.0000e+00 -1.0000e+00
<mgrwt>
<rscale>  1 0.10024930E+04</rscale>
<asrwt>0</asrwt>
<pdfrwt beam="1">  1        2 0.94330985E-01 0.10024930E+04</pdfrwt>
<pdfrwt beam="2">  1       -2 0.13842218E+00 0.10024930E+04</pdfrwt>
<totfact> 0.17751885E+01</totfact>
</mgrwt>
</event>
<event>
 6      1 +3.0741590e+01 9.97970200e+02 7.81860800e-03 9.31077400e-02
       -2 -1    0    0    0  501 -0.0000000000e+00 +0.0000000000e+00 +4.2229729657e+02 4.2229729657e+02 0.0000000000e+00 0.0000e+00 1.0000e+00
        2 -1    0    0  502    0 +0.0000000000e+00 -0.0000000000e+00 -7.1503192833e+02 7.1503192833e+02 0.0000000000e+00 0.0000e+00 -1.0000e+00
  5000001  2    1    2    0    0 +2.4158578081e+01 -4.1458957835e+01 -3.5454621640e+02 1.0590786398e+03 9.9681596273e+02 0.0000e+00 0.0000e+00
  5000521  1    3    3    0    0 -2.4095689169e+00 -4.7573086499e+02 +3.2113264076e+01 4.7692444230e+02 1.0000000000e+01 0.0000e+00 1.0000e+00
 -5000521  1    3    3    0    0 +2.6568146998e+01 +4.3427190716e+02 -3.8665948047e+02 5.8215419746e+02 1.0000000000e+01 0.0000e+00 -1.0000e+00
       21  1    1    2  502  501 -2.4158578081e+01 +4.1458957835e+01 +6.1811584637e+01 7.8250585142e+01 0.0000000000e+00 0.0000e+00 1.0000e+00
<mgrwt>
<rscale>  1 0.99797021E+03</rscale>
<asrwt>0</asrwt>
<pdfrwt beam="1">  1        2 0.11000491E+00 0.99797021E+03</pdfrwt>
<pdfrwt beam="2">  1       -2 0.64968816E-01 0.99797021E+03</pdfrwt>
<totfact> 0.86993451E+01</totfact>
</mgrwt>
</event>
<event>
 6      1 +3.0741590e+01 1.00524700e+03 7.81860800e-03 9.30280900e-02
        2 -1    0    0  502    0 +0.0000000000e+00 +0.0000000000e+00 +1.4912627848e+03 1.4912627848e+03 0.0000000000e+00 0.0000e+00 1.0000e+00
       -2 -1    0    0    0  501 -0.0000000000e+00 -0.0000000000e+00 -1.8275010572e+02 1.8275010572e+02 0.0000000000e+00 0.0000e+00 -1.0000e+00
  5000001  2    1    2    0    0 -3.2365577052e+01 -2.9576585033e+00 +1.2935634362e+03 1.6382391826e+03 1.0047213431e+03 0.0000e+00 0.0000e+00
  5000521  1    3    3    0    0 +1.4489047322e+02 +8.4604231264e+01 -1.2276718587e+02 2.0814155545e+02 1.0000000000e+01 0.0000e+00 -1.0000e+00
 -5000521  1    3    3    0    0 -1.7725605027e+02 -8.7561889768e+01 +1.4163306221e+03 1.4300976271e+03 1.0000000000e+01 0.0000e+00 1.0000e+00
       21  1    1    2  502  501 +3.2365577052e+01 +2.9576585033e+00 +1.4949242864e+01 3.5773707998e+01 0.0000000000e+00 0.0000e+00 -1.0000e+00
<mgrwt>
<rscale>  1 0.10052469E+04</rscale>
<asrwt>0</asrwt>
<pdfrwt beam="1">  1        2 0.22942504E+00 0.10052469E+04</pdfrwt>
<pdfrwt beam="2">  1       -2 0.28115402E-01 0.10052469E+04</pdfrwt>
<totfact> 0.14815782E+02</totfact>
</mgrwt>
</event>
<event>
 6      1 +3.0741590e+01 9.95214800e+02 7.81860800e-03 9.31380900e-02
        1 -1    0    0  502    0 +0.0000000000e+00 +0.0000000000e+00 +5.4173327783e+02 5.4173327783e+02 0.0000000000e+00 0.0000e+00 -1.0000e+00
       -1 -1    0    0    0  501 -0.0000000000e+00 -0.0000000000e+00 -9.2459718918e+02 9.2459718918e+02 0.0000000000e+00 0.0000e+00 1.0000e+00
  5000001  2    1    2    0    0 -3.6612435028e+00 -3.4186590639e+01 -6.5539736818e+02 1.1916367962e+03 9.9462073988e+02 0.0000e+00 0.0000e+00
  5000521  1    3    3    0    0 +3.8868129583e+02 -8.2772596528e+01 +3.1778758353e+01 3.9879110063e+02 1.0000000000e+01 0.0000e+00 -1.0000e+00
 -5000521  1    3    3    0    0 -3.9234253933e+02 +4.8586005890e+01 -6.8717612653e+02 7.9284569558e+02 1.0000000000e+01 0.0000e+00 1.0000e+00
       21  1    1    2  502  501 +3.6612435028e+00 +3.4186590639e+01 +2.7253345683e+02 2.7469367079e+02 0.0000000000e+00 0.0000e+00 -1.0000e+00
<mgrwt>
<rscale>  1 0.99521482E+03</rscale>
<asrwt>0</asrwt>
<pdfrwt beam="1">  1        1 0.83343583E-01 0.99521482E+03</pdfrwt>
<pdfrwt beam="2">  1       -1 0.14224572E+00 0.99521482E+03</pdfrwt>
<totfact> 0.15979768E+01</totfact>
</mgrwt>
</event>
<event>
 6      1 +3.0741590e+01 1.00013000e+03 7.81860800e-03 9.30840200e-02
        2 -1    0    0  502    0 -0.0000000000e+00 +0.0000000000e+00 +2.9103902521e+02 2.9103902521e+02 0.0000000000e+00 0.0000e+00 1.0000e+00
       21 -1    0    0  501  502 +0.0000000000e+00 -0.0000000000e+00 -1.8058300606e+03 1.8058300606e+03 0.0000000000e+00 0.0000e+00 -1.0000e+00
  5000001  2    1    2    0    0 -1.2881706680e+01 +2.6468857877e+01 -5.6908100690e+02 1.1507010263e+03 9.9969651433e+02 0.0000e+00 0.0000e+00
  5000521  1    3    3    0    0 +2.5266445076e+02 -4.0976994459e+02 -2.0450063788e+02 5.2313596995e+02 1.0000000000e+01 0.0000e+00 1.0000e+00
 -5000521  1    3    3    0    0 -2.6554615744e+02 +4.3623880246e+02 -3.6458036902e+02 6.2756505637e+02 1.0000000000e+01 0.0000e+00 -1.0000e+00
        2  1    1    2  501    0 +1.2881706680e+01 -2.6468857877e+01 -9.4571002852e+02 9.4616805951e+02 0.0000000000e+00 0.0000e+00 1.0000e+00
<mgrwt>
<rscale>  1 0.10001298E+04</rscale>
<asrwt>0</asrwt>
<pdfrwt beam="1">  1       21 0.27782001E+00 0.10001298E+04</pdfrwt>
<pdfrwt beam="2">  1        2 0.44775235E-01 0.10001298E+04</pdfrwt>
<totfact> 0.45140490E+01</totfact>
</mgrwt>
</event>
<event>
 6      1 +3.0741590e+01 9.91110500e+02 7.81860800e-03 9.31834900e-02
        1 -1    0    0  502    0 +0.0000000000e+00 +0.0000000000e+00 +7.5241564378e+02 7.5241564378e+02 0.0000000000e+00 0.0000e+00 -1.0000e+00
       -1 -1    0    0    0  501 -0.0000000000e+00 -0.0000000000e+00 -4.3220379247e+02 4.3220379247e+02 0.0000000000e+00 0.0000e+00 1.0000e+00
  5000001  2    1    2    0    0 -8.9573938549e+00 -2.4764815826e+01 +4.2366677047e+02 1.0778652733e+03 9.9076055836e+02 0.0000e+00 0.0000e+00
  5000521  1    3    3    0    0 -3.7547472810e+02 -3.3287790917e+02 +2.9416680244e+02 5.8174142152e+02 1.0000000000e+01 0.0000e+00 -1.0000e+00
 -5000521  1    3    3    0    0 +3.6651733425e+02 +3.0811309334e+02 +1.2949996802e+02 4.9612385179e+02 1.0000000000e+01 0.0000e+00 1.0000e+00
       21  1    1    2  502  501 +8.9573938549e+00 +2.4764815826e+01 -1.0345491915e+02 1.0675416294e+02 0.0000000000e+00 0.0000e+00 1.0000e+00
<mgrwt>
<rscale>  1 0.99111050E+03</rscale>
<asrwt>0</asrwt>
<pdfrwt beam="1">  1        1 0.11575625E+00 0.99111050E+03</pdfrwt>
<pdfrwt beam="2">  1       -1 0.66492891E-01 0.99111050E+03</pdfrwt>
<totfact> 0.56033936E+01</totfact>
</mgrwt>
</event>
<event>
 6      1 +3.0741590e+01 1.00441900e+03 7.81860800e-03 9.30371100e-02
       -1 -1    0    0    0  501 -0.0000000000e+00 +0.0000000000e+00 +1.9475952524e+02 1.9475952524e+02 0.0000000000e+00 0.0000e+00 1.0000e+00
        1 -1    0    0  502    0 +0.0000000000e+00 -0.0000000000e+00 -1.6881919986e+03 1.6881919986e+03 0.0000000000e+00 0.0000e+00 -1.0000e+00
  5000001  2    1    2    0    0 +8.9101826701e+01 -2.9495779432e+00 -1.1441786812e+03 1.5224989654e+03 1.0004551013e+03 0.0000e+00 0.0000e+00
  5000521  1    3    3    0    0 +2.2917474814e+02 +2.3010149291e+02 +2.1368716516e+01 3.2561385762e+02 1.0000000000e+01 0.0000e+00 1.0000e+00
 -5000521  1    3    3    0    0 -1.4007292144e+02 -2.3305107085e+02 -1.1655473977e+03 1.1968851078e+03 1.0000000000e+01 0.0000e+00 -1.0000e+00
       21  1    1    2  502  501 -8.9101826701e+01 +2.9495779432e+00 -3.4925379215e+02 3.6045255841e+02 0.0000000000e+00 0.0000e+00 -1.0000e+00
<mgrwt>
<rscale>  1 0.10044194E+04</rscale>
<asrwt>0</asrwt>
<pdfrwt beam="1">  1        1 0.25972184E+00 0.10044194E+04</pdfrwt>
<pdfrwt beam="2">  1       -1 0.29963005E-01 0.10044194E+04</pdfrwt>
<totfact> 0.49887589E+01</totfact>
</mgrwt>
</event>
<event>
 6      1 +3.0741590e+01 1.01500600e+03 7.81860800e-03 9.29223800e-02
        2 -1    0    0  502    0 +0.0000000000e+00 +0.0000000000e+00 +1.2688711686e+03 1.2688711686e+03 0.0000000000e+00 0.0000e+00 -1.0000e+00
       -2 -1    0    0    0  501 -0.0000000000e+00 -0.0000000000e+00 -2.7079783923e+02 2.7079783923e+02 0.0000000000e+00 0.0000e+00 1.0000e+00
  5000001  2    1    2    0    0 -8.3022208039e+01 -1.2202063911e+01 +1.0335108697e+03 1.4485789608e+03 1.0115308747e+03 0.0000e+00 0.0000e+00
  5000521  1    3    3    0    0 -5.4286613906e+02 +5.0675647925e+01 +4.8305180504e+02 7.2849894481e+02 1.0000000000e+01 0.0000e+00 1.0000e+00
 -5000521  1    3    3    0    0 +4.5984393102e+02 -6.2877711837e+01 +5.5045906469e+02 7.2008001600e+02 1.0000000000e+01 0.0000e+00 -1.0000e+00
       21  1    1    2  502  501 +8.3022208039e+01 +1.2202063911e+01 -3.5437540393e+01 9.1090046989e+01 0.0000000000e+00 0.0000e+00 -1.0000e+00
<mgrwt>
<rscale>  1 0.10150056E+04</rscale>
<asrwt>0</asrwt>
<pdfrwt beam="1">  1        2 0.19521095E+00 0.10150056E+04</pdfrwt>
<pdfrwt beam="2">  1       -2 0.41661207E-01 0.10150056E+04</pdfrwt>
<totfact> 0.93822928E+01</totfact>
</mgrwt>
</event>
<event>
 6      1 +3.0741590e+01 1.01298500e+03 7.81860800e-03 9.29441700e-02
       -2 -1    0    0    0  501 -0.0000000000e+00 +0.0000000000e+00 +3.0761937620e+02 3.0761937620e+02 0.0000000000e+00 0.0000e+00 -1.0000e+00
        2 -1    0    0  502    0 +0.0000000000e+00 -0.0000000000e+00 -1.7910869665e+03 1.7910869665e+03 0.0000000000e+00 0.0000e+00 1.0000e+00
  5000001  2    1    2    0    0 +6.0262935802e+01 +1.3049185124e+01 -1.6415951195e+03 1.9289823957e+03 1.0111066433e+03 0.0000e+00 0.0000e+00
  5000521  1    3    3    0    0 +2.3345890955e+02 +1.7587200799e+02 -1.6644625303e+03 1.6899614020e+03 1.0000000000e+01 0.0000e+00 1.0000e+00
 -5000521  1    3    3    0    0 -1.7319597374e+02 -1.6282282287e+02 +2.2867410797e+01 2.3902099373e+02 1.0000000000e+01 0.0000e+00 -1.0000e+00
       21  1    1    2  502  501 -6.0262935802e+01 -1.3049185124e+01 +1.5812752920e+02 1.6972394691e+02 0.0000000000e+00 0.0000e+00 -1.0000e+00
<mgrwt>
<rscale>  1 0.10129850E+04</rscale>
<asrwt>0</asrwt>
<pdfrwt beam="1">  1        2 0.27555184E+00 0.10129850E+04</pdfrwt>
<pdfrwt beam="2">  1       -2 0.47326058E-01 0.10129850E+04</pdfrwt>
<totfact> 0.36946241E+01</totfact>
</mgrwt>
</event>
<event>
 6      1 +3.0741590e+01 1.00462600e+03 7.81860800e-03 9.30348600e-02
       -2 -1    0    0    0  501 -0.0000000000e+00 +0.0000000000e+00 +1.4560592787e+02 1.4560592787e+02 0.0000000000e+00 0.0000e+00 1.0000e+00
        2 -1    0    0  502    0 +0.0000000000e+00 -0.0000000000e+00 -1.8034418774e+03 1.8034418774e+03 0.0000000000e+00 0.0000e+00 -1.0000e+00
  5000001  2    1    2    0    0 +1.5497445493e+00 -2.0130617699e+01 -1.6221984482e+03 1.9080883744e+03 1.0044231158e+03 0.0000e+00 0.0000e+00
  5000521  1    3    3    0    0 -1.2789899580e+02 +4.7527099164e+02 -7.7546196005e+02 9.1852159479e+02 1.0000000000e+01 0.0000e+00 1.0000e+00
 -5000521  1    3    3    0    0 +1.2944874034e+02 -4.9540160934e+02 -8.4673648818e+02 9.8956677961e+02 1.0000000000e+01 0.0000e+00 -1.0000e+00
       21  1    1    2  502  501 -1.5497445493e+00 +2.0130617699e+01 -3.5637501320e+01 4.0959430873e+01 0.0000000000e+00 0.0000e+00 -1.0000e+00
<mgrwt>
<rscale>  1 0.10046260E+04</rscale>
<asrwt>0</asrwt>
<pdfrwt beam="1">  1        2 0.27745261E+00 0.10046260E+04</pdfrwt>
<pdfrwt beam="2">  1       -2 0.22400911E-01 0.10046260E+04</pdfrwt>
<totfact> 0.15012477E+02</totfact>
</mgrwt>
</event>
<event>
 6      1 +3.0741590e+01 1.01742600e+03 7.81860800e-03 9.28963600e-02
       -1 -1    0    0    0  501 -0.0000000000e+00 +0.0000000000e+00 +3.2643200419e+02 3.2643200419e+02 0.0000000000e+00 0.0000e+00 1.0000e+00
        1 -1    0    0  502    0 +0.0000000000e+00 -0.0000000000e+00 -1.4706488919e+03 1.4706488919e+03 0.0000000000e+00 0.0000e+00 -1.0000e+00
  5000001  2    1    2    0    0 +2.0566706648e+01 +8.6827880450e+00 -4.6697952328e+02 1.1194756806e+03 1.0171811757e+03 0.0000e+00 0.0000e+00
  5000521  1    3    3    0    0 +4.0954256117e+02 +2.0342694264e+02 -5.0662979908e+02 6.8255504079e+02 1.0000000000e+01 0.0000e+00 -1.0000e+00
 -5000521  1    3    3    0    0 -3.8897585452e+02 -1.9474415460e+02 +3.9650275797e+01 4.3692063984e+02 1.0000000000e+01 0.0000e+00 1.0000e+00
       21  1    1    2  502  501 -2.0566706648e+01 -8.6827880450e+00 -6.7723736447e+02 6.7760521549e+02 0.0000000000e+00 0.0000e+00 1.0000e+00
<mgrwt>
<rscale>  1 0.10174261E+04</rscale>
<asrwt>0</asrwt>
<pdfrwt beam="1">  1        1 0.22625367E+00 0.10174261E+04</pdfrwt>
<pdfrwt beam="2">  1       -1 0.50220309E-01 0.10174261E+04</pdfrwt>
<totfact> 0.27389607E+01</totfact>
</mgrwt>
</event>
<event>
 6      1 +3.0741590e+01 9.55298200e+02 7.81860800e-03 9.35897900e-02
       -2 -1    0    0    0  501 -0.0000000000e+00 +0.0000000000e+00 +4.5381864099e+02 4.5381864099e+02 0.0000000000e+00 0.0000e+00 -1.0000e+00
        2 -1    0    0  502    0 +0.0000000000e+00 -0.0000000000e+00 -5.8571364309e+02 5.8571364309e+02 0.0000000000e+00 0.0000e+00 1.0000e+00
  5000001  2    1    2    0    0 +3.6698515041e-01 -4.0706195366e+01 -1.8456564055e+02 9.7296408465e+02 9.5443046124e+02 0.0000e+00 0.0000e+00
  5000521  1    3    3    0    0 +1.0344173913e+02 +3.1300350667e+02 +2.4212318179e+02 4.0913936958e+02 1.0000000000e+01 0.0000e+00 -1.0000e+00
 -5000521  1    3    3    0    0 -1.0307475397e+02 -3.5370970203e+02 -4.2668882234e+02 5.6382471508e+02 1.0000000000e+01 0.0000e+00 1.0000e+00
       21  1    1    2  502  501 -3.6698515041e-01 +4.0706195366e+01 +5.2670638452e+01 6.6568199422e+01 0.0000000000e+00 0.0000e+00 -1.0000e+00
<mgrwt>
<rscale>  1 0.95529819E+03</rscale>
<asrwt>0</asrwt>
<pdfrwt beam="1">  1        2 0.90109791E-01 0.95529819E+03</pdfrwt>
<pdfrwt beam="2">  1       -2 0.69818253E-01 0.95529819E+03</pdfrwt>
<totfact> 0.95539548E+01</totfact>
</mgrwt>
</event>
<event>
 6      1 +3.0741590e+01 9.98651700e+02 7.81860800e-03 9.31002500e-02
        2 -1    0    0  502    0 +0.0000000000e+00 +0.0000000000e+00 +9.9630624308e+01 9.9630624308e+01 0.0000000000e+00 0.0000e+00 1.0000e+00
       -2 -1    0    0    0  501 -0.0000000000e+00 -0.0000000000e+00 -2.6794235567e+03 2.6794235567e+03 0.0000000000e+00 0.0000e+00 -1.0000e+00
  5000001  2    1    2    0    0 +3.1189735492e+01 -1.3921808817e-01 -2.4532560405e+03 2.6487299546e+03 9.9816449202e+02 0.0000e+00 0.0000e+00
  5000521  1    3    3    0    0 -9.0488555017e+01 -4.5764131934e+02 -1.6653690122e+03 1.7295021545e+03 1.0000000000e+01 0.0000e+00 -1.0000e+00
 -5000521  1    3    3    0    0 +1.2167829051e+02 +4.5750210126e+02 -7.8788702835e+02 9.1922780010e+02 1.0000000000e+01 0.0000e+00 1.0000e+00
       21  1    1    2  502  501 -3.1189735492e+01 +1.3921808817e-01 -1.2653689186e+02 1.3032422639e+02 0.0000000000e+00 0.0000e+00 -1.0000e+00
<mgrwt>
<rscale>  1 0.99865168E+03</rscale>
<asrwt>0</asrwt>
<pdfrwt beam="1">  1        2 0.15327790E-01 0.99865168E+03</pdfrwt>
<pdfrwt beam="2">  1       -2 0.41221896E+00 0.99865168E+03</pdfrwt>
<totfact> 0.24865546E+00</totfact>
</mgrwt>
</event>
<event>
 6      1 +3.0741590e+01 1.02406400e+03 7.81860800e-03 9.28253800e-02
       -1 -1    0    0    0  501 -0.0000000000e+00 +0.0000000000e+00 +5.4528943756e+02 5.4528943756e+02 0.0000000000e+00 0.0000e+00 1.0000e+00
        1 -1    0    0  502    0 +0.0000000000e+00 -0.0000000000e+00 -7.6718554896e+02 7.6718554896e+02 0.0000000000e+00 0.0000e+00 -1.0000e+00
  5000001  2    1    2    0    0 +1.9584239407e+02 +1.2913669993e+02 -2.9682311427e+02 1.0662137708e+03 9.9683364378e+02 0.0000e+00 0.0000e+00
  5000521  1    3    3    0    0 -3.0250792503e+02 -2.3068836071e+02 +6.6727065379e+00 3.8062145169e+02 1.0000000000e+01 0.0000e+00 -1.0000e+00
 -5000521  1    3    3    0    0 +4.9835031911e+02 +3.5982506065e+02 -3.0349582081e+02 6.8559231915e+02 1.0000000000e+01 0.0000e+00 1.0000e+00
       21  1    1    2  502  501 -1.9584239407e+02 -1.2913669993e+02 +7.4927002872e+01 2.4626121567e+02 0.0000000000e+00 0.0000e+00 -1.0000e+00
<mgrwt>
<rscale>  1 0.10240644E+04</rscale>
<asrwt>0</asrwt>
<pdfrwt beam="1">  1        1 0.11802855E+00 0.10240644E+04</pdfrwt>
<pdfrwt beam="2">  1       -1 0.83890683E-01 0.10240644E+04</pdfrwt>
<totfact> 0.33322082E+01</totfact>
</mgrwt>
</event>
<event>
 6      1 +3.0741590e+01 9.95707400e+02 7.81860800e-03 9.31326500e-02
       -1 -1    0    0    0  501 -0.0000000000e+00 +0.0000000000e+00 +4.2436840793e+02 4.2436840793e+02 0.0000000000e+00 0.0000e+00 1.0000e+00
        1 -1    0    0  502    0 +0.0000000000e+00 -0.0000000000e+00 -7.3337808558e+02 7.3337808558e+02 0.0000000000e+00 0.0000e+00 -1.0000e+00
  5000001  2    1    2    0    0 -7.3763226590e+01 +7.4555024851e+00 -3.6950508036e+02 1.0620579787e+03 9.9294337586e+02 0.0000e+00 0.0000e+00
  5000521  1    3    3    0    0 +2.3335780890e+02 -3.2999635757e+02 -4.4303400758e+02 5.9977712099e+02 1.0000000000e+01 0.0000e+00 -1.0000e+00
 -5000521  1    3    3    0    0 -3.0712103549e+02 +3.3745186006e+02 +7.3528927226e+01 4.6228085774e+02 1.0000000000e+01 0.0000e+00 1.0000e+00
       21  1    1    2  502  501 +7.3763226590e+01 -7.4555024851e+00 +6.0495402703e+01 9.5688514788e+01 0.0000000000e+00 0.0000e+00 -1.0000e+00
<mgrwt>
<rscale>  1 0.99570736E+03</rscale>
<asrwt>0</asrwt>
<pdfrwt beam="1">  1        1 0.11282740E+00 0.99570736E+03</pdfrwt>
<pdfrwt beam="2">  1       -1 0.65287448E-01 0.99570736E+03</pdfrwt>
<totfact> 0.60500734E+01</totfact>
</mgrwt>
</event>
<event>
 6      1 +3.0741590e+01 1.00515000e+03 7.81860800e-03 9.30291500e-02
        4 -1    0    0  502    0 +0.0000000000e+00 +0.0000000000e+00 +2.1890860492e+03 2.1890860492e+03 0.0000000000e+00 0.0000e+00 -1.0000e+00
       -4 -1    0    0    0  501 -0.0000000000e+00 -0.0000000000e+00 -1.6922510898e+02 1.6922510898e+02 0.0000000000e+00 0.0000e+00 1.0000e+00
  5000001  2    1    2    0    0 -4.0965711240e+00 -3.1063740432e+01 +1.3268342791e+03 1.6645765613e+03 1.0046612297e+03 0.0000e+00 0.0000e+00
  5000521  1    3    3    0    0 -3.4498780079e+01 +4.7645817827e+02 +8.0370439100e+02 9.3500979117e+02 1.0000000000e+01 0.0000e+00 -1.0000e+00
 -5000521  1    3    3    0    0 +3.0402208955e+01 -5.0752191870e+02 +5.2312988807e+02 7.2956677012e+02 1.0000000000e+01 0.0000e+00 1.0000e+00
       21  1    1    2  502  501 +4.0965711240e+00 +3.1063740432e+01 +6.9302666118e+02 6.9373459693e+02 0.0000000000e+00 0.0000e+00 1.0000e+00
<mgrwt>
<rscale>  1 0.10051497E+04</rscale>
<asrwt>0</asrwt>
<pdfrwt beam="1">  1        4 0.33678245E+00 0.10051497E+04</pdfrwt>
<pdfrwt beam="2">  1       -4 0.26034634E-01 0.10051497E+04</pdfrwt>
<totfact> 0.51625569E-01</totfact>
</mgrwt>
</event>
<event>
 6      1 +3.0741590e+01 1.00297800e+03 7.81860800e-03 9.30528500e-02
       -1 -1    0    0    0  501 -0.0000000000e+00 +0.0000000000e+00 +1.9578907192e+02 1.9578907192e+02 0.0000000000e+00 0.0000e+00 -1.0000e+00
        1 -1    0    0  502    0 +0.0000000000e+00 -0.0000000000e+00 -1.7277197800e+03 1.7277197800e+03 0.0000000000e+00 0.0000e+00 1.0000e+00
  5000001  2    1    2    0    0 -1.1683184794e+02 +4.4293722873e+01 -1.4808112195e+03 1.7885095309e+03 9.9516473994e+02 0.0000e+00 0.0000e+00
  5000521  1    3    3    0    0 -1.0275651827e+02 +2.6070956256e+02 +1.1350042479e+01 2.8063713496e+02 1.0000000000e+01 0.0000e+00 -1.0000e+00
 -5000521  1    3    3    0    0 -1.4075329675e+01 -2.1641583969e+02 -1.4921612620e+03 1.5078723959e+03 1.0000000000e+01 0.0000e+00 1.0000e+00
       21  1    1    2  502  501 +1.1683184794e+02 -4.4293722873e+01 -5.1119488609e+01 1.3499932109e+02 0.0000000000e+00 0.0000e+00 1.0000e+00
<mgrwt>
<rscale>  1 0.10029778E+04</rscale>
<asrwt>0</asrwt>
<pdfrwt beam="1">  1        1 0.26580305E+00 0.10029778E+04</pdfrwt>
<pdfrwt beam="2">  1       -1 0.30121395E-01 0.10029778E+04</pdfrwt>
<totfact> 0.46476196E+01</totfact>
</mgrwt>
</event>
<event>
 6      1 +3.0741590e+01 1.00036700e+03 7.81860800e-03 9.30814200e-02
       -2 -1    0    0    0  501 -0.0000000000e+00 +0.0000000000e+00 +1.1229071464e+02 1.1229071464e+02 0.0000000000e+00 0.0000e+00 -1.0000e+00
        2 -1    0    0  502    0 +0.0000000000e+00 -0.0000000000e+00 -2.5669198898e+03 2.5669198898e+03 0.0000000000e+00 0.0000e+00 1.0000e+00
  5000001  2    1    2    0    0 -2.6076375989e+01 -9.1415447989e+00 -2.1279231197e+03 2.3513380805e+03 9.9998521018e+02 0.0000e+00 0.0000e+00
  5000521  1    3    3    0    0 -4.2013214282e+01 -3.5360328251e+02 -1.9108004552e+03 1.9437229153e+03 1.0000000000e+01 0.0000e+00 1.0000e+00
 -5000521  1    3    3    0    0 +1.5936838293e+01 +3.4446173771e+02 -2.1712266444e+02 4.0761516529e+02 1.0000000000e+01 0.0000e+00 -1.0000e+00
       21  1    1    2  502  501 +2.6076375989e+01 +9.1415447989e+00 -3.2670605546e+02 3.2787252386e+02 0.0000000000e+00 0.0000e+00 1.0000e+00
<mgrwt>
<rscale>  1 0.10003669E+04</rscale>
<asrwt>0</asrwt>
<pdfrwt beam="1">  1        2 0.39491076E+00 0.10003669E+04</pdfrwt>
<pdfrwt beam="2">  1       -2 0.17275494E-01 0.10003669E+04</pdfrwt>
<totfact> 0.88799011E+01</totfact>
</mgrwt>
</event>
<event>
 6      1 +3.0741590e+01 9.90933500e+02 7.81860800e-03 9.31854500e-02
        4 -1    0    0  502    0 +0.0000000000e+00 +0.0000000000e+00 +1.4498124712e+03 1.4498124712e+03 0.0000000000e+00 0.0000e+00 -1.0000e+00
       -4 -1    0    0    0  501 -0.0000000000e+00 -0.0000000000e+00 -3.7395292375e+02 3.7395292375e+02 0.0000000000e+00 0.0000e+00 1.0000e+00
  5000001  2    1    2    0    0 +1.8160704854e+01 +8.8303127305e+00 +1.2799324172e+03 1.6186958415e+03 9.9072773705e+02 0.0000e+00 0.0000e+00
  5000521  1    3    3    0    0 +3.7283579789e+02 +2.5364008415e+02 +2.8278937957e+02 5.3236233683e+02 1.0000000000e+01 0.0000e+00 1.0000e+00
 -5000521  1    3    3    0    0 -3.5467509303e+02 -2.4480977142e+02 +9.9714303763e+02 1.0863335046e+03 1.0000000000e+01 0.0000e+00 -1.0000e+00
       21  1    1    2  502  501 -1.8160704854e+01 -8.8303127305e+00 -2.0407286972e+02 2.0506955351e+02 0.0000000000e+00 0.0000e+00 1.0000e+00
<mgrwt>
<rscale>  1 0.99093352E+03</rscale>
<asrwt>0</asrwt>
<pdfrwt beam="1">  1        4 0.22304807E+00 0.99093352E+03</pdfrwt>
<pdfrwt beam="2">  1       -4 0.57531220E-01 0.99093352E+03</pdfrwt>
<totfact> 0.52567380E-01</totfact>
</mgrwt>
</event>
<event>
 6      1 +3.0741590e+01 1.00260200e+03 7.81860800e-03 9.30569500e-02
        2 -1    0    0  502    0 +0.0000000000e+00 +0.0000000000e+00 +1.6162544783e+03 1.6162544783e+03 0.0000000000e+00 0.0000e+00 1.0000e+00
       -2 -1    0    0    0  501 -0.0000000000e+00 -0.0000000000e+00 -1.6468699152e+02 1.6468699152e+02 0.0000000000e+00 0.0000e+00 -1.0000e+00
  5000001  2    1    2    0    0 +2.6540738400e+01 -1.1332041840e+01 +1.4184828326e+03 1.7370390746e+03 1.0021867961e+03 0.0000e+00 0.0000e+00
  5000521  1    3    3    0    0 +3.9212021736e+02 +2.1255451938e+02 +2.9589741504e+02 5.3534378562e+02 1.0000000000e+01 0.0000e+00 -1.0000e+00
 -5000521  1    3    3    0    0 -3.6557947896e+02 -2.2388656121e+02 +1.1225854176e+03 1.2016952890e+03 1.0000000000e+01 0.0000e+00 1.0000e+00
       21  1    1    2  502  501 -2.6540738400e+01 +1.1332041840e+01 +3.3084654104e+01 4.3902395200e+01 0.0000000000e+00 0.0000e+00 1.0000e+00
<mgrwt>
<rscale>  1 0.10026022E+04</rscale>
<asrwt>0</asrwt>
<pdfrwt beam="1">  1        2 0.24865452E+00 0.10026022E+04</pdfrwt>
<pdfrwt beam="2">  1       -2 0.25336461E-01 0.10026022E+04</pdfrwt>
<totfact> 0.15263723E+02</totfact>
</mgrwt>
</event>
<event>
 6      1 +3.0741590e+01 1.03735300e+03 7.81860800e-03 9.26849900e-02
       -2 -1    0    0    0  501 -0.0000000000e+00 +0.0000000000e+00 +1.5286258660e+03 1.5286258660e+03 0.0000000000e+00 0.0000e+00 1.0000e+00
        2 -1    0    0  502    0 +0.0000000000e+00 -0.0000000000e+00 -3.2089123983e+02 3.2089123983e+02 0.0000000000e+00 0.0000e+00 -1.0000e+00
  5000001  2    1    2    0    0 +1.7364979410e+02 -1.4422958562e+02 +1.2452077358e+03 1.6206925917e+03 1.0124948134e+03 0.0000e+00 0.0000e+00
  5000521  1    3    3    0    0 +2.7849785979e+02 -4.7798525535e+02 +3.3810941284e+02 6.4842033997e+02 1.0000000000e+01 0.0000e+00 -1.0000e+00
 -5000521  1    3    3    0    0 -1.0484806569e+02 +3.3375566973e+02 +9.0709832293e+02 9.7227225170e+02 1.0000000000e+01 0.0000e+00 1.0000e+00
       21  1    1    2  502  501 -1.7364979410e+02 +1.4422958562e+02 -3.7473109568e+01 2.2882451420e+02 0.0000000000e+00 0.0000e+00 -1.0000e+00
<mgrwt>
<rscale>  1 0.10373534E+04</rscale>
<asrwt>0</asrwt>
<pdfrwt beam="1">  1        2 0.49367884E-01 0.10373534E+04</pdfrwt>
<pdfrwt beam="2">  1       -2 0.23517321E+00 0.10373534E+04</pdfrwt>
<totfact> 0.80628840E+00</totfact>
</mgrwt>
</event>
<event>
 6      1 +3.0741590e+01 1.25631700e+03 7.81860800e-03 9.06494200e-02
        1 -1    0    0  502    0 +0.0000000000e+00 +0.0000000000e+00 +1.4533508779e+03 1.4533508779e+03 0.0000000000e+00 0.0000e+00 -1.0000e+00
       -1 -1    0    0    0  501 -0.0000000000e+00 -0.0000000000e+00 -7.2323853033e+02 7.2323853033e+02 0.0000000000e+00 0.0000e+00 1.0000e+00
  5000001  2    1    2    0    0 +2.6050778116e+02 +7.4565413835e+02 +3.7921708488e+02 1.3123024863e+03 9.7696868931e+02 0.0000e+00 0.0000e+00
  5000521  1    3    3    0    0 -3.4428154262e+02 +4.5632863378e+02 +7.7180258132e+01 5.7690761378e+02 1.0000000000e+01 0.0000e+00 1.0000e+00
 -5000521  1    3    3    0    0 +6.0478932378e+02 +2.8932550457e+02 +3.0203682675e+02 7.3539487247e+02 1.0000000000e+01 0.0000e+00 -1.0000e+00
       21  1    1    2  502  501 -2.6050778116e+02 -7.4565413835e+02 +3.5089526265e+02 8.6428692194e+02 0.0000000000e+00 0.0000e+00 1.0000e+00
<mgrwt>
<rscale>  1 0.12563169E+04</rscale>
<asrwt>0</asrwt>
<pdfrwt beam="1">  1        1 0.22359244E+00 0.12563169E+04</pdfrwt>
<pdfrwt beam="2">  1       -1 0.11126747E+00 0.12563169E+04</pdfrwt>
<totfact> 0.51207205E+00</totfact>
</mgrwt>
</event>
<event>
 6      1 +3.0741590e+01 1.00563500e+03 7.81860800e-03 9.30238600e-02
        1 -1    0    0  502    0 +0.0000000000e+00 +0.0000000000e+00 +2.2262253909e+03 2.2262253909e+03 0.0000000000e+00 0.0000e+00 -1.0000e+00
       -1 -1    0    0    0  501 -0.0000000000e+00 -0.0000000000e+00 -1.3205773862e+02 1.3205773862e+02 0.0000000000e+00 0.0000e+00 1.0000e+00
  5000001  2    1    2    0    0 -5.1514824423e+01 -5.9570896733e+01 +1.9463543444e+03 2.1907980768e+03 1.0025460143e+03 0.0000e+00 0.0000e+00
  5000521  1    3    3    0    0 +2.6234564614e+02 +3.7047350214e+02 +6.8701530798e+02 8.2350828000e+02 1.0000000000e+01 0.0000e+00 1.0000e+00
 -5000521  1    3    3    0    0 -3.1386047056e+02 -4.3004439887e+02 +1.2593390364e+03 1.3672897968e+03 1.0000000000e+01 0.0000e+00 -1.0000e+00
       21  1    1    2  502  501 +5.1514824423e+01 +5.9570896733e+01 +1.4781330794e+02 1.6748505270e+02 0.0000000000e+00 0.0000e+00 1.0000e+00
<mgrwt>
<rscale>  1 0.10056346E+04</rscale>
<asrwt>0</asrwt>
<pdfrwt beam="1">  1        1 0.34249619E+00 0.10056346E+04</pdfrwt>
<pdfrwt beam="2">  1       -1 0.20316577E-01 0.10056346E+04</pdfrwt>
<totfact> 0.42069436E+01</totfact>
</mgrwt>
</event>
<event>
 6      1 +3.0741590e+01 1.00019800e+03 7.81860800e-03 9.30832700e-02
       -1 -1    0    0    0  501 -0.0000000000e+00 +0.0000000000e+00 +2.3641697367e+02 2.3641697367e+02 0.0000000000e+00 0.0000e+00 -1.0000e+00
        1 -1    0    0  502    0 +0.0000000000e+00 -0.0000000000e+00 -1.2091189586e+03 1.2091189586e+03 0.0000000000e+00 0.0000e+00 1.0000e+00
  5000001  2    1    2    0    0 -4.5848662895e+01 -4.7627107717e+01 -8.8365894860e+02 1.3346346086e+03 9.9801100177e+02 0.0000e+00 0.0000e+00
  5000521  1    3    3    0    0 +6.9839513086e+01 -4.2361076747e+02 -8.3391447032e+02 9.3799625996e+02 1.0000000000e+01 0.0000e+00 1.0000e+00
 -5000521  1    3    3    0    0 -1.1568817598e+02 +3.7598365975e+02 -4.9744478287e+01 3.9663834860e+02 1.0000000000e+01 0.0000e+00 -1.0000e+00
       21  1    1    2  502  501 +4.5848662895e+01 +4.7627107717e+01 -8.9043036277e+01 1.1090132365e+02 0.0000000000e+00 0.0000e+00 -1.0000e+00
<mgrwt>
<rscale>  1 0.10001982E+04</rscale>
<asrwt>0</asrwt>
<pdfrwt beam="1">  1        1 0.18601830E+00 0.10001982E+04</pdfrwt>
<pdfrwt beam="2">  1       -1 0.36371843E-01 0.10001982E+04</pdfrwt>
<totfact> 0.76360474E+01</totfact>
</mgrwt>
</event>
<event>
 6      1 +3.0741590e+01 1.00735800e+03 7.81860800e-03 9.30051100e-02
        2 -1    0    0  502    0 +0.0000000000e+00 +0.0000000000e+00 +2.2660169843e+03 2.2660169843e+03 0.0000000000e+00 0.0000e+00 1.0000e+00
       -2 -1    0    0    0  501 -0.0000000000e+00 -0.0000000000e+00 -1.2519328826e+02 1.2519328826e+02 0.0000000000e+00 0.0000e+00 -1.0000e+00
  5000001  2    1    2    0    0 +4.9629024801e+00 -2.1621937048e+01 +2.1439406475e+03 2.3688081756e+03 1.0071139629e+03 0.0000e+00 0.0000e+00
  5000521  1    3    3    0    0 -5.8767951301e+01 -9.1443597969e+01 -8.4684860071e+01 1.3815617697e+02 1.0000000000e+01 0.0000e+00 -1.0000e+00
 -5000521  1    3    3    0    0 +6.3730853781e+01 +6.9821660921e+01 +2.2286255075e+03 2.2306519986e+03 1.0000000000e+01 0.0000e+00 1.0000e+00
       21  1    1    2  502  501 -4.9629024801e+00 +2.1621937048e+01 -3.1169514303e+00 2.2402096976e+01 0.0000000000e+00 0.0000e+00 -1.0000e+00
<mgrwt>
<rscale>  1 0.10073583E+04</rscale>
<asrwt>0</asrwt>
<pdfrwt beam="1">  1        2 0.34861797E+00 0.10073583E+04</pdfrwt>
<pdfrwt beam="2">  1       -2 0.19260508E-01 0.10073583E+04</pdfrwt>
<totfact> 0.10881120E+02</totfact>
</mgrwt>
</event>
<event>
 6      1 +3.0741590e+01 1.00117300e+03 7.81860800e-03 9.30725900e-02
        2 -1    0    0  502    0 +0.0000000000e+00 +0.0000000000e+00 +1.2351186207e+03 1.2351186207e+03 0.0000000000e+00 0.0000e+00 1.0000e+00
       -2 -1    0    0    0  501 -0.0000000000e+00 -0.0000000000e+00 -2.5472157126e+02 2.5472157126e+02 0.0000000000e+00 0.0000e+00 -1.0000e+00
  5000001  2    1    2    0    0 -3.5569432651e+01 +4.4913875035e+01 +7.4600406033e+02 1.2485467730e+03 9.9953216332e+02 0.0000e+00 0.0000e+00
  5000521  1    3    3    0    0 -2.5482367128e+01 +4.7485203991e+01 -2.4822934814e+02 2.5420858544e+02 1.0000000000e+01 0.0000e+00 -1.0000e+00
 -5000521  1    3    3    0    0 -1.0087065523e+01 -2.5713289558e+00 +9.9423340847e+02 9.9433818751e+02 1.0000000000e+01 0.0000e+00 1.0000e+00
       21  1    1    2  502  501 +3.5569432651e+01 -4.4913875035e+01 +2.3439298909e+02 2.4129341898e+02 0.0000000000e+00 0.0000e+00 -1.0000e+00
<mgrwt>
<rscale>  1 0.10011728E+04</rscale>
<asrwt>0</asrwt>
<pdfrwt beam="1">  1        2 0.19001825E+00 0.10011728E+04</pdfrwt>
<pdfrwt beam="2">  1       -2 0.39187935E-01 0.10011728E+04</pdfrwt>
<totfact> 0.11084968E+02</totfact>
</mgrwt>
</event>
<event>
 6      1 +3.0741590e+01 1.00217900e+03 7.81860800e-03 9.30615800e-02
       -1 -1    0    0    0  501 -0.0000000000e+00 +0.0000000000e+00 +2.8510290263e+02 2.8510290263e+02 0.0000000000e+00 0.0000e+00 1.0000e+00
        1 -1    0    0  502    0 +0.0000000000e+00 -0.0000000000e+00 -2.1198237826e+03 2.1198237826e+03 0.0000000000e+00 0.0000e+00 -1.0000e+00
  5000001  2    1    2    0    0 -3.3388556678e+00 -2.7613210057e+01 -2.0001491043e+03 2.2371764699e+03 1.0017926335e+03 0.0000e+00 0.0000e+00
  5000521  1    3    3    0    0 +3.7741435680e+00 +7.5567695754e+01 -2.0950580181e+03 2.0964476669e+03 1.0000000000e+01 0.0000e+00 -1.0000e+00
 -5000521  1    3    3    0    0 -7.1129992358e+00 -1.0318090581e+02 +9.4908913766e+01 1.4072880300e+02 1.0000000000e+01 0.0000e+00 1.0000e+00
       21  1    1    2  502  501 +3.3388556678e+00 +2.7613210057e+01 +1.6542822437e+02 1.6775021534e+02 0.0000000000e+00 0.0000e+00 1.0000e+00
<mgrwt>
<rscale>  1 0.10021787E+04</rscale>
<asrwt>0</asrwt>
<pdfrwt beam="1">  1        1 0.32612674E+00 0.10021787E+04</pdfrwt>
<pdfrwt beam="2">  1       -1 0.43861985E-01 0.10021787E+04</pdfrwt>
<totfact> 0.12843269E+01</totfact>
</mgrwt>
</event>
<event>
 6      1 +3.0741590e+01 1.00108500e+03 7.81860800e-03 9.30735600e-02
       -2 -1    0    0    0  501 -0.0000000000e+00 +0.0000000000e+00 +1.3088793933e+03 1.3088793933e+03 0.0000000000e+00 0.0000e+00 1.0000e+00
        2 -1    0    0  502    0 +0.0000000000e+00 -0.0000000000e+00 -5.5141451296e+02 5.5141451296e+02 0.0000000000e+00 0.0000e+00 -1.0000e+00
  5000001  2    1    2    0    0 +3.5422660665e+01 -3.6645796419e+01 -9.5662565319e+01 1.0056453716e+03 9.9978678112e+02 0.0000e+00 0.0000e+00
  5000521  1    3    3    0    0 +1.8328500295e+02 -4.4553781879e+02 +1.5184835501e+02 5.0522793193e+02 1.0000000000e+01 0.0000e+00 1.0000e+00
 -5000521  1    3    3    0    0 -1.4786234228e+02 +4.0889202237e+02 -2.4751092033e+02 5.0041743965e+02 1.0000000000e+01 0.0000e+00 -1.0000e+00
       21  1    1    2  502  501 -3.5422660665e+01 +3.6645796419e+01 +8.5312744568e+02 8.5464853469e+02 0.0000000000e+00 0.0000e+00 1.0000e+00
<mgrwt>
<rscale>  1 0.10010851E+04</rscale>
<asrwt>0</asrwt>
<pdfrwt beam="1">  1        2 0.84833002E-01 0.10010851E+04</pdfrwt>
<pdfrwt beam="2">  1       -2 0.20136606E+00 0.10010851E+04</pdfrwt>
<totfact> 0.71133844E+00</totfact>
</mgrwt>
</event>
<event>
 6      1 +3.0741590e+01 1.00188000e+03 7.81860800e-03 9.30648600e-02
       -2 -1    0    0    0  501 -0.0000000000e+00 +0.0000000000e+00 +2.8781031975e+02 2.8781031975e+02 0.0000000000e+00 0.0000e+00 -1.0000e+00
        2 -1    0    0  502    0 +0.0000000000e+00 -0.0000000000e+00 -9.4642947210e+02 9.4642947210e+02 0.0000000000e+00 0.0000e+00 1.0000e+00
  5000001  2    1    2    0    0 +3.3298896866e+01 +2.2635629525e+01 -6.4581099993e+02 1.1919877265e+03 1.0010702794e+03 0.0000e+00 0.0000e+00
  5000521  1    3    3    0    0 +2.3772710040e+02 -2.6971407024e+02 -7.4010171337e+02 8.2286718253e+02 1.0000000000e+01 0.0000e+00 1.0000e+00
 -5000521  1    3    3    0    0 -2.0442820353e+02 +2.9234969976e+02 +9.4290713444e+01 3.6912054399e+02 1.0000000000e+01 0.0000e+00 -1.0000e+00
       21  1    1    2  502  501 -3.3298896866e+01 -2.2635629525e+01 -1.2808152422e+01 4.2252065333e+01 0.0000000000e+00 0.0000e+00 -1.0000e+00
<mgrwt>
<rscale>  1 0.10018797E+04</rscale>
<asrwt>0</asrwt>
<pdfrwt beam="1">  1        2 0.14560453E+00 0.10018797E+04</pdfrwt>
<pdfrwt beam="2">  1       -2 0.44278511E-01 0.10018797E+04</pdfrwt>
<totfact> 0.13172119E+02</totfact>
</mgrwt>
</event>
<event>
 6      1 +3.0741590e+01 9.84720100e+02 7.81860800e-03 9.32546400e-02
        2 -1    0    0  502    0 +0.0000000000e+00 +0.0000000000e+00 +1.7275013480e+03 1.7275013480e+03 0.0000000000e+00 0.0000e+00 1.0000e+00
       -2 -1    0    0    0  501 -0.0000000000e+00 -0.0000000000e+00 -1.9037962964e+02 1.9037962964e+02 0.0000000000e+00 0.0000e+00 -1.0000e+00
  5000001  2    1    2    0    0 +2.2861748372e+01 -1.7711650652e+01 +1.0865343342e+03 1.4663664675e+03 9.8429538020e+02 0.0000e+00 0.0000e+00
  5000521  1    3    3    0    0 +2.7299800366e+02 +6.4939184460e+01 -6.2342501365e+01 2.8763100521e+02 1.0000000000e+01 0.0000e+00 -1.0000e+00
 -5000521  1    3    3    0    0 -2.5013625529e+02 -8.2650835113e+01 +1.1488768355e+03 1.1787354623e+03 1.0000000000e+01 0.0000e+00 1.0000e+00
       21  1    1    2  502  501 -2.2861748372e+01 +1.7711650652e+01 +4.5058738418e+02 4.5151451017e+02 0.0000000000e+00 0.0000e+00 -1.0000e+00
<mgrwt>
<rscale>  1 0.98472014E+03</rscale>
<asrwt>0</asrwt>
<pdfrwt beam="1">  1        2 0.26576943E+00 0.98472014E+03</pdfrwt>
<pdfrwt beam="2">  1       -2 0.29289175E-01 0.98472014E+03</pdfrwt>
<totfact> 0.10162463E+02</totfact>
</mgrwt>
</event>
<event>
 5      1 +3.0741590e+01 7.84081300e+02 7.81860800e-03 9.58334900e-02
        3 -1    0    0  502    0 +0.0000000000e+00 +0.0000000000e+00 +2.8773286761e+02 2.8773286761e+02 0.0000000000e+00 0.0000e+00 -1.0000e+00
       -3 -1    0    0    0  501 -0.0000000000e+00 -0.0000000000e+00 -7.6995876538e+02 7.6995876538e+02 0.0000000000e+00 0.0000e+00 1.0000e+00
  5000521  1    1    2    0    0 -3.6230209425e+02 -1.4163921763e+02 -2.0622264101e+02 4.4040010574e+02 1.0000000000e+01 0.0000e+00 1.0000e+00
 -5000521  1    1    2    0    0 +3.6295383753e+02 +1.1174910275e+02 -4.2939645105e+01 3.8231814405e+02 1.0000000000e+01 0.0000e+00 -1.0000e+00
       21  1    1    2  502  501 -6.5174328746e-01 +2.9890114881e+01 -2.3306361166e+02 2.3497338321e+02 0.0000000000e+00 0.0000e+00 1.0000e+00
<mgrwt>
<rscale>  1 0.78408129E+03</rscale>
<asrwt>0</asrwt>
<pdfrwt beam="1">  1        3 0.44266596E-01 0.78408129E+03</pdfrwt>
<pdfrwt beam="2">  1       -3 0.11845519E+00 0.78408129E+03</pdfrwt>
<totfact> 0.77714394E+00</totfact>
</mgrwt>
</event>
<event>
 6      1 +3.0741590e+01 1.00520200e+03 7.81860800e-03 9.30285800e-02
        3 -1    0    0  502    0 +0.0000000000e+00 +0.0000000000e+00 +9.3227570305e+02 9.3227570305e+02 0.0000000000e+00 0.0000e+00 -1.0000e+00
       -3 -1    0    0    0  501 -0.0000000000e+00 -0.0000000000e+00 -4.2984849031e+02 4.2984849031e+02 0.0000000000e+00 0.0000e+00 1.0000e+00
  5000001  2    1    2    0    0 -6.5161944551e+01 -1.7931134894e+01 +1.6580541641e+02 1.0187849466e+03 1.0029275780e+03 0.0000e+00 0.0000e+00
  5000521  1    3    3    0    0 +2.3096101703e+02 +9.3606024200e+01 +4.9980819125e+02 5.5858151348e+02 1.0000000000e+01 0.0000e+00 -1.0000e+00
 -5000521  1    3    3    0    0 -2.9612296158e+02 -1.1153715909e+02 -3.3400277484e+02 4.6020343310e+02 1.0000000000e+01 0.0000e+00 1.0000e+00
       21  1    1    2  502  501 +6.5161944551e+01 +1.7931134894e+01 +3.3662179633e+02 3.4333924678e+02 0.0000000000e+00 0.0000e+00 -1.0000e+00
<mgrwt>
<rscale>  1 0.10052021E+04</rscale>
<asrwt>0</asrwt>
<pdfrwt beam="1">  1        3 0.14342703E+00 0.10052021E+04</pdfrwt>
<pdfrwt beam="2">  1       -3 0.66130537E-01 0.10052021E+04</pdfrwt>
<totfact> 0.20751954E+00</totfact>
</mgrwt>
</event>
<event>
 6      1 +3.0741590e+01 1.00059700e+03 7.81860800e-03 9.30789100e-02
       -1 -1    0    0    0  501 -0.0000000000e+00 +0.0000000000e+00 +3.1799985486e+02 3.1799985486e+02 0.0000000000e+00 0.0000e+00 1.0000e+00
        1 -1    0    0  502    0 +0.0000000000e+00 -0.0000000000e+00 -1.1408790763e+03 1.1408790763e+03 0.0000000000e+00 0.0000e+00 -1.0000e+00
  5000001  2    1    2    0    0 +4.1778097790e+01 +2.9836102495e+01 -4.7568996307e+02 1.1079145689e+03 9.9927881420e+02 0.0000e+00 0.0000e+00
  5000521  1    3    3    0    0 -3.0472470241e+02 +3.9342265323e+02 -2.1907206134e+02 5.4381163687e+02 1.0000000000e+01 0.0000e+00 1.0000e+00
 -5000521  1    3    3    0    0 +3.4650280020e+02 -3.6358655073e+02 -2.5661790174e+02 5.6410293202e+02 1.0000000000e+01 0.0000e+00 -1.0000e+00
       21  1    1    2  502  501 -4.1778097790e+01 -2.9836102495e+01 -3.4718925840e+02 3.5096436232e+02 0.0000000000e+00 0.0000e+00 -1.0000e+00
<mgrwt>
<rscale>  1 0.10005967E+04</rscale>
<asrwt>0</asrwt>
<pdfrwt beam="1">  1        1 0.17551986E+00 0.10005967E+04</pdfrwt>
<pdfrwt beam="2">  1       -1 0.48923054E-01 0.10005967E+04</pdfrwt>
<totfact> 0.49576916E+01</totfact>
</mgrwt>
</event>
<event>
 6      1 +3.0741590e+01 9.95610900e+02 7.81860800e-03 9.31337200e-02
        2 -1    0    0  502    0 +0.0000000000e+00 +0.0000000000e+00 +2.1007134901e+03 2.1007134901e+03 0.0000000000e+00 0.0000e+00 -1.0000e+00
       -2 -1    0    0    0  501 -0.0000000000e+00 -0.0000000000e+00 -2.5978578603e+02 2.5978578603e+02 0.0000000000e+00 0.0000e+00 1.0000e+00
  5000001  2    1    2    0    0 +2.8119683003e+01 +2.5873800922e+01 +1.9800272048e+03 2.2162465768e+03 9.9487737294e+02 0.0000e+00 0.0000e+00
  5000521  1    3    3    0    0 -2.6976486445e+02 -1.0370132629e+02 +1.8396254521e+03 1.8622161129e+03 1.0000000000e+01 0.0000e+00 -1.0000e+00
 -5000521  1    3    3    0    0 +2.9788454745e+02 +1.2957512721e+02 +1.4040175275e+02 3.5403046391e+02 1.0000000000e+01 0.0000e+00 1.0000e+00
       21  1    1    2  502  501 -2.8119683003e+01 -2.5873800922e+01 -1.3909950077e+02 1.4425269932e+02 0.0000000000e+00 0.0000e+00 1.0000e+00
<mgrwt>
<rscale>  1 0.99561095E+03</rscale>
<asrwt>0</asrwt>
<pdfrwt beam="1">  1        2 0.32318668E+00 0.99561095E+03</pdfrwt>
<pdfrwt beam="2">  1       -2 0.39967045E-01 0.99561095E+03</pdfrwt>
<totfact> 0.34975716E+01</totfact>
</mgrwt>
</event>
<event>
 6      1 +3.0741590e+01 9.99596000e+02 7.81860800e-03 9.30898800e-02
       -2 -1    0    0    0  501 -0.0000000000e+00 +0.0000000000e+00 +4.3467794147e+02 4.3467794147e+02 0.0000000000e+00 0.0000e+00 -1.0000e+00
        2 -1    0    0  502    0 +0.0000000000e+00 -0.0000000000e+00 -6.5774424306e+02 6.5774424306e+02 0.0000000000e+00 0.0000e+00 1.0000e+00
  5000001  2    1    2    0    0 -8.8028266477e+00 +6.8472156409e+01 -2.1875080383e+02 1.0232517466e+03 9.9720925427e+02 0.0000e+00 0.0000e+00
  5000521  1    3    3    0    0 -7.3622160851e+01 -1.4670108828e+02 +3.6355035245e+02 3.9901164223e+02 1.0000000000e+01 0.0000e+00 -1.0000e+00
 -5000521  1    3    3    0    0 +6.4819334203e+01 +2.1517324468e+02 -5.8230115628e+02 6.2424010438e+02 1.0000000000e+01 0.0000e+00 1.0000e+00
       21  1    1    2  502  501 +8.8028266477e+00 -6.8472156409e+01 -4.3154977646e+00 6.9170437915e+01 0.0000000000e+00 0.0000e+00 -1.0000e+00
<mgrwt>
<rscale>  1 0.99959603E+03</rscale>
<asrwt>0</asrwt>
<pdfrwt beam="1">  1        2 0.10119142E+00 0.99959603E+03</pdfrwt>
<pdfrwt beam="2">  1       -2 0.66873529E-01 0.99959603E+03</pdfrwt>
<totfact> 0.90825623E+01</totfact>
</mgrwt>
</event>
<event>
 6      1 +3.0741590e+01 1.00626800e+03 7.81860800e-03 9.30169700e-02
       -2 -1    0    0    0  501 -0.0000000000e+00 +0.0000000000e+00 +2.3322786517e+02 2.3322786517e+02 0.0000000000e+00 0.0000e+00 1.0000e+00
        2 -1    0    0  502    0 +0.0000000000e+00 -0.0000000000e+00 -1.2672392757e+03 1.2672392757e+03 0.0000000000e+00 0.0000e+00 -1.0000e+00
  5000001  2    1    2    0    0 +1.2758439952e+01 +2.1001805092e+01 -8.5697676765e+02 1.3217351673e+03 1.0059676031e+03 0.0000e+00 0.0000e+00
  5000521  1    3    3    0    0 -3.3321740829e+02 +1.7253470378e+02 +1.0529720702e+01 3.7551689737e+02 1.0000000000e+01 0.0000e+00 1.0000e+00
 -5000521  1    3    3    0    0 +3.4597584824e+02 -1.5153289868e+02 -8.6750648835e+02 9.4621826989e+02 1.0000000000e+01 0.0000e+00 -1.0000e+00
       21  1    1    2  502  501 -1.2758439952e+01 -2.1001805092e+01 -1.7703464289e+02 1.7873197361e+02 0.0000000000e+00 0.0000e+00 -1.0000e+00
<mgrwt>
<rscale>  1 0.10062677E+04</rscale>
<asrwt>0</asrwt>
<pdfrwt beam="1">  1        2 0.19495989E+00 0.10062677E+04</pdfrwt>
<pdfrwt beam="2">  1       -2 0.35881210E-01 0.10062677E+04</pdfrwt>
<totfact> 0.12583526E+02</totfact>
</mgrwt>
</event>
<event>
 6      1 +3.0741590e+01 9.82017800e+02 7.81860800e-03 9.32849000e-02
       -1 -1    0    0    0  501 -0.0000000000e+00 +0.0000000000e+00 +3.1538384644e+02 3.1538384644e+02 0.0000000000e+00 0.0000e+00 1.0000e+00
        1 -1    0    0  502    0 +0.0000000000e+00 -0.0000000000e+00 -9.4647749056e+02 9.4647749056e+02 0.0000000000e+00 0.0000e+00 -1.0000e+00
  5000001  2    1    2    0    0 +2.5233883309e+01 +1.9803650337e+01 -4.5399785207e+02 1.0818839690e+03 9.8149372859e+02 0.0000e+00 0.0000e+00
  5000521  1    3    3    0    0 +4.6090838776e+02 +1.5793706109e+02 -3.8177177276e+02 6.1905601011e+02 1.0000000000e+01 0.0000e+00 -1.0000e+00
 -5000521  1    3    3    0    0 -4.3567450446e+02 -1.3813341075e+02 -7.2226079314e+01 4.6282795889e+02 1.0000000000e+01 0.0000e+00 1.0000e+00
       21  1    1    2  502  501 -2.5233883309e+01 -1.9803650337e+01 -1.7709579205e+02 1.7997736801e+02 0.0000000000e+00 0.0000e+00 -1.0000e+00
<mgrwt>
<rscale>  1 0.98201776E+03</rscale>
<asrwt>0</asrwt>
<pdfrwt beam="1">  1        1 0.14561192E+00 0.98201776E+03</pdfrwt>
<pdfrwt beam="2">  1       -1 0.48520591E-01 0.98201776E+03</pdfrwt>
<totfact> 0.71146893E+01</totfact>
</mgrwt>
</event>
<event>
 6      1 +3.0741590e+01 1.00110300e+03 7.81860800e-03 9.30733600e-02
        1 -1    0    0  502    0 +0.0000000000e+00 +0.0000000000e+00 +5.5830214202e+02 5.5830214202e+02 0.0000000000e+00 0.0000e+00 -1.0000e+00
       -1 -1    0    0    0  501 -0.0000000000e+00 -0.0000000000e+00 -8.3791407504e+02 8.3791407504e+02 0.0000000000e+00 0.0000e+00 1.0000e+00
  5000001  2    1    2    0    0 +3.1704090626e+01 -1.8216177564e+01 +1.0797446384e+02 1.0069088918e+03 1.0004349319e+03 0.0000e+00 0.0000e+00
  5000521  1    3    3    0    0 -2.8832515079e+02 +2.7922746170e+02 -2.2247480271e+02 4.5901460302e+02 1.0000000000e+01 0.0000e+00 -1.0000e+00
 -5000521  1    3    3    0    0 +3.2002924141e+02 -2.9744363926e+02 +3.3044926655e+02 5.4789428876e+02 1.0000000000e+01 0.0000e+00 1.0000e+00
       21  1    1    2  502  501 -3.1704090626e+01 +1.8216177564e+01 -3.8758639687e+02 3.8930732529e+02 0.0000000000e+00 0.0000e+00 1.0000e+00
<mgrwt>
<rscale>  1 0.10011029E+04</rscale>
<asrwt>0</asrwt>
<pdfrwt beam="1">  1        1 0.85892637E-01 0.10011029E+04</pdfrwt>
<pdfrwt beam="2">  1       -1 0.12890986E+00 0.10011029E+04</pdfrwt>
<totfact> 0.19722335E+01</totfact>
</mgrwt>
</event>
<event>
 6      1 +3.0741590e+01 1.00248400e+03 7.81860800e-03 9.30582500e-02
       -2 -1    0    0    0  501 -0.0000000000e+00 +0.0000000000e+00 +5.5813710494e+02 5.5813710494e+02 0.0000000000e+00 0.0000e+00 -1.0000e+00
        2 -1    0    0  502    0 +0.0000000000e+00 -0.0000000000e+00 -5.4134806605e+02 5.4134806605e+02 0.0000000000e+00 0.0000e+00 1.0000e+00
  5000001  2    1    2    0    0 +9.2829304291e+01 +1.2434480433e+01 +3.8951922208e+01 1.0032402260e+03 9.9809909467e+02 0.0000e+00 0.0000e+00
  5000521  1    3    3    0    0 +5.4418404198e+02 +2.5018832482e+01 -3.3251017103e+01 5.4586430884e+02 1.0000000000e+01 0.0000e+00 1.0000e+00
 -5000521  1    3    3    0    0 -4.5135473769e+02 -1.2584352049e+01 +7.2202939311e+01 4.5737591716e+02 1.0000000000e+01 0.0000e+00 -1.0000e+00
       21  1    1    2  502  501 -9.2829304291e+01 -1.2434480433e+01 -2.2162883325e+01 9.6244944989e+01 0.0000000000e+00 0.0000e+00 -1.0000e+00
<mgrwt>
<rscale>  1 0.10024838E+04</rscale>
<asrwt>0</asrwt>
<pdfrwt beam="1">  1        2 0.83284318E-01 0.10024838E+04</pdfrwt>
<pdfrwt beam="2">  1       -2 0.85867247E-01 0.10024838E+04</pdfrwt>
<totfact> 0.65900307E+01</totfact>
</mgrwt>
</event>
<event>
 6      1 +3.0741590e+01 1.00275400e+03 7.81860800e-03 9.30553000e-02
       21 -1    0    0  501  502 +0.0000000000e+00 +0.0000000000e+00 +1.1387960660e+03 1.1387960660e+03 0.0000000000e+00 0.0000e+00 1.0000e+00
        1 -1    0    0  502    0 -0.0000000000e+00 -0.0000000000e+00 -2.9840755068e+02 2.9840755068e+02 0.0000000000e+00 0.0000e+00 -1.0000e+00
  5000001  2    1    2    0    0 +8.0938513155e+00 -2.1482346454e+01 +5.4570158251e+02 1.1416238643e+03 1.0024908123e+03 0.0000e+00 0.0000e+00
  5000521  1    3    3    0    0 -3.4039603229e+02 +2.4212465612e+02 -2.9868468267e+01 4.1891041201e+02 1.0000000000e+01 0.0000e+00 -1.0000e+00
 -5000521  1    3    3    0    0 +3.4848988360e+02 -2.6360700257e+02 +5.7557005078e+02 7.2271345230e+02 1.0000000000e+01 0.0000e+00 1.0000e+00
        1  1    1    2  501    0 -8.0938513155e+00 +2.1482346454e+01 +2.9468693279e+02 2.9557975234e+02 0.0000000000e+00 0.0000e+00 -1.0000e+00
<mgrwt>
<rscale>  1 0.10027536E+04</rscale>
<asrwt>0</asrwt>
<pdfrwt beam="1">  1       21 0.17519939E+00 0.10027536E+04</pdfrwt>
<pdfrwt beam="2">  1        1 0.45908855E-01 0.10027536E+04</pdfrwt>
<totfact> 0.14706256E+02</totfact>
</mgrwt>
</event>
<event>
 6      1 +3.0741590e+01 1.00051900e+03 7.81860800e-03 9.30797600e-02
        2 -1    0    0  502    0 +0.0000000000e+00 +0.0000000000e+00 +8.8393090815e+02 8.8393090815e+02 0.0000000000e+00 0.0000e+00 1.0000e+00
       -2 -1    0    0    0  501 -0.0000000000e+00 -0.0000000000e+00 -3.6389689658e+02 3.6389689658e+02 0.0000000000e+00 0.0000e+00 -1.0000e+00
  5000001  2    1    2    0    0 +4.5914234290e+01 -2.2134109562e+01 +3.3378133437e+02 1.0547265477e+03 9.9921973331e+02 0.0000e+00 0.0000e+00
  5000521  1    3    3    0    0 +2.7146739184e+02 -4.4486212301e+02 +1.6974108593e+02 5.4818691116e+02 1.0000000000e+01 0.0000e+00 -1.0000e+00
 -5000521  1    3    3    0    0 -2.2555315755e+02 +4.2272801345e+02 +1.6404024844e+02 5.0653963649e+02 1.0000000000e+01 0.0000e+00 1.0000e+00
       21  1    1    2  502  501 -4.5914234290e+01 +2.2134109562e+01 +1.8625267720e+02 1.9310125706e+02 0.0000000000e+00 0.0000e+00 1.0000e+00
<mgrwt>
<rscale>  1 0.10005189E+04</rscale>
<asrwt>0</asrwt>
<pdfrwt beam="1">  1        2 0.13598937E+00 0.10005189E+04</pdfrwt>
<pdfrwt beam="2">  1       -2 0.55984138E-01 0.10005189E+04</pdfrwt>
<totfact> 0.89878605E+01</totfact>
</mgrwt>
</event>
<event>
 6      1 +3.0741590e+01 1.36802500e+03 7.81860800e-03 8.97729400e-02
        2 -1    0    0  502    0 -0.0000000000e+00 +0.0000000000e+00 +2.5820960471e+03 2.5820960471e+03 0.0000000000e+00 0.0000e+00 -1.0000e+00
       21 -1    0    0  501  502 +0.0000000000e+00 -0.0000000000e+00 -5.0972513119e+02 5.0972513119e+02 0.0000000000e+00 0.0000e+00 -1.0000e+00
  5000001  2    1    2    0    0 +6.9393980728e+02 -6.1371851627e+02 +1.2244485924e+03 1.8359648410e+03 1.0066229028e+03 0.0000e+00 0.0000e+00
  5000521  1    3    3    0    0 +2.7098165259e+02 +1.7095804816e+02 -1.0067809358e+00 3.2056001604e+02 1.0000000000e+01 0.0000e+00 1.0000e+00
 -5000521  1    3    3    0    0 +4.2295815469e+02 -7.8467656443e+02 +1.2254553733e+03 1.5154048249e+03 1.0000000000e+01 0.0000e+00 -1.0000e+00
        2  1    1    2  501    0 -6.9393980728e+02 +6.1371851627e+02 +8.4792232356e+02 1.2558563374e+03 0.0000000000e+00 0.0000e+00 -1.0000e+00
<mgrwt>
<rscale>  1 0.13680251E+04</rscale>
<asrwt>0</asrwt>
<pdfrwt beam="1">  1       21 0.78419252E-01 0.13680251E+04</pdfrwt>
<pdfrwt beam="2">  1        2 0.39724554E+00 0.13680251E+04</pdfrwt>
<totfact> 0.45791291E+01</totfact>
</mgrwt>
</event>
<event>
 6      1 +3.0741590e+01 1.00187000e+03 7.81860800e-03 9.30649600e-02
        2 -1    0    0  502    0 -0.0000000000e+00 +0.0000000000e+00 +1.1255304519e+03 1.1255304519e+03 0.0000000000e+00 0.0000e+00 -1.0000e+00
       21 -1    0    0  501  502 +0.0000000000e+00 -0.0000000000e+00 -2.7942746368e+02 2.7942746368e+02 0.0000000000e+00 0.0000e+00 1.0000e+00
  5000001  2    1    2    0    0 -1.0228574174e+02 -2.9629353743e+01 +8.2162687994e+02 1.2956905763e+03 9.9619429234e+02 0.0000e+00 0.0000e+00
  5000521  1    3    3    0    0 -3.1951633817e+02 -2.6388008639e+02 +8.7818308812e+02 9.7109676480e+02 1.0000000000e+01 0.0000e+00 -1.0000e+00
 -5000521  1    3    3    0    0 +2.1723059643e+02 +2.3425073265e+02 -5.6556208178e+01 3.2459381149e+02 1.0000000000e+01 0.0000e+00 1.0000e+00
        2  1    1    2  501    0 +1.0228574174e+02 +2.9629353743e+01 +2.4476108312e+01 1.0926733933e+02 0.0000000000e+00 0.0000e+00 -1.0000e+00
<mgrwt>
<rscale>  1 0.10018699E+04</rscale>
<asrwt>0</asrwt>
<pdfrwt beam="1">  1       21 0.42988841E-01 0.10018699E+04</pdfrwt>
<pdfrwt beam="2">  1        2 0.17315853E+00 0.10018699E+04</pdfrwt>
<totfact> 0.12237064E+03</totfact>
</mgrwt>
</event>
<event>
 6      1 +3.0741590e+01 1.00570900e+03 7.81860800e-03 9.30230600e-02
       -2 -1    0    0    0  501 -0.0000000000e+00 +0.0000000000e+00 +2.0799127914e+02 2.0799127914e+02 0.0000000000e+00 0.0000e+00 -1.0000e+00
        2 -1    0    0  502    0 +0.0000000000e+00 -0.0000000000e+00 -1.3060096115e+03 1.3060096115e+03 0.0000000000e+00 0.0000e+00 1.0000e+00
  5000001  2    1    2    0    0 +1.2020074590e+01 -1.7991692812e+01 -1.0175904205e+03 1.4307132433e+03 1.0054759755e+03 0.0000e+00 0.0000e+00
  5000521  1    3    3    0    0 +1.3129871621e+02 -4.3571704542e+01 +1.7980103840e+02 2.2708205504e+02 1.0000000000e+01 0.0000e+00 -1.0000e+00
 -5000521  1    3    3    0    0 -1.1927864162e+02 +2.5580011730e+01 -1.1973914589e+03 1.2036311882e+03 1.0000000000e+01 0.0000e+00 1.0000e+00
       21  1    1    2  502  501 -1.2020074590e+01 +1.7991692812e+01 -8.0427911805e+01 8.3287647348e+01 0.0000000000e+00 0.0000e+00 1.0000e+00
<mgrwt>
<rscale>  1 0.10057088E+04</rscale>
<asrwt>0</asrwt>
<pdfrwt beam="1">  1        2 0.20092455E+00 0.10057088E+04</pdfrwt>
<pdfrwt beam="2">  1       -2 0.31998659E-01 0.10057088E+04</pdfrwt>
<totfact> 0.14852336E+02</totfact>
</mgrwt>
</event>
<event>
 6      1 +3.0741590e+01 1.00914400e+03 7.81860800e-03 9.29857200e-02
       -2 -1    0    0    0  501 -0.0000000000e+00 +0.0000000000e+00 +4.2409826141e+02 4.2409826141e+02 0.0000000000e+00 0.0000e+00 -1.0000e+00
        2 -1    0    0  502    0 +0.0000000000e+00 -0.0000000000e+00 -7.8940548786e+02 7.8940548786e+02 0.0000000000e+00 0.0000e+00 1.0000e+00
  5000001  2    1    2    0    0 +2.4182895649e+01 -4.6774383740e+00 -4.6477636088e+02 1.1110303402e+03 1.0088432288e+03 0.0000e+00 0.0000e+00
  5000521  1    3    3    0    0 -3.9069022965e+02 -3.0490157122e+02 -2.0091379906e+02 5.3485528728e+02 1.0000000000e+01 0.0000e+00 -1.0000e+00
 -5000521  1    3    3    0    0 +4.1487312530e+02 +3.0022413284e+02 -2.6386256182e+02 5.7617505288e+02 1.0000000000e+01 0.0000e+00 1.0000e+00
       21  1    1    2  502  501 -2.4182895649e+01 +4.6774383740e+00 +9.9469134430e+01 1.0247340912e+02 0.0000000000e+00 0.0000e+00 -1.0000e+00
<mgrwt>
<rscale>  1 0.10091439E+04</rscale>
<asrwt>0</asrwt>
<pdfrwt beam="1">  1        2 0.12144700E+00 0.10091439E+04</pdfrwt>
<pdfrwt beam="2">  1       -2 0.65245886E-01 0.10091439E+04</pdfrwt>
<totfact> 0.75705345E+01</totfact>
</mgrwt>
</event>
<event>
 6      1 +3.0741590e+01 1.02188800e+03 7.81860800e-03 9.28485900e-02
       21 -1    0    0  501  502 +0.0000000000e+00 +0.0000000000e+00 +1.2757115724e+03 1.2757115724e+03 0.0000000000e+00 0.0000e+00 -1.0000e+00
        1 -1    0    0  502    0 -0.0000000000e+00 -0.0000000000e+00 -2.8265820317e+02 2.8265820317e+02 0.0000000000e+00 0.0000e+00 1.0000e+00
  5000001  2    1    2    0    0 -1.6738614746e+02 -2.5893783109e+01 +9.1580853731e+02 1.3722102353e+03 1.0077534632e+03 0.0000e+00 0.0000e+00
  5000521  1    3    3    0    0 +1.3342408107e+02 +1.8685823395e+02 -1.2951961714e+02 2.6380545148e+02 1.0000000000e+01 0.0000e+00 1.0000e+00
 -5000521  1    3    3    0    0 -3.0081022853e+02 -2.1275201706e+02 +1.0453281544e+03 1.1084047838e+03 1.0000000000e+01 0.0000e+00 -1.0000e+00
        1  1    1    2  501    0 +1.6738614746e+02 +2.5893783109e+01 +7.7244831901e+01 1.8615954023e+02 0.0000000000e+00 0.0000e+00 1.0000e+00
<mgrwt>
<rscale>  1 0.10218883E+04</rscale>
<asrwt>0</asrwt>
<pdfrwt beam="1">  1       21 0.19626332E+00 0.10218883E+04</pdfrwt>
<pdfrwt beam="2">  1        1 0.43485878E-01 0.10218883E+04</pdfrwt>
<totfact> 0.11131136E+02</totfact>
</mgrwt>
</event>
<event>
 6      1 +3.0741590e+01 1.00524200e+03 7.81860800e-03 9.30281400e-02
        1 -1    0    0  502    0 +0.0000000000e+00 +0.0000000000e+00 +3.2413802110e+03 3.2413802110e+03 0.0000000000e+00 0.0000e+00 1.0000e+00
       -1 -1    0    0    0  501 -0.0000000000e+00 -0.0000000000e+00 -8.4828882705e+01 8.4828882705e+01 0.0000000000e+00 0.0000e+00 -1.0000e+00
  5000001  2    1    2    0    0 +7.3879446699e+00 +3.2427491053e+01 +3.1138119241e+03 3.2720539409e+03 1.0046920771e+03 0.0000e+00 0.0000e+00
  5000521  1    3    3    0    0 +1.6907132965e+02 -4.2426040877e+02 +2.0902493625e+03 2.1395851015e+03 1.0000000000e+01 0.0000e+00 1.0000e+00
 -5000521  1    3    3    0    0 -1.6168338498e+02 +4.5668789983e+02 +1.0235625615e+03 1.1324688394e+03 1.0000000000e+01 0.0000e+00 -1.0000e+00
       21  1    1    2  502  501 -7.3879446699e+00 -3.2427491053e+01 +4.2739404219e+01 5.4155152806e+01 0.0000000000e+00 0.0000e+00 1.0000e+00
<mgrwt>
<rscale>  1 0.10052424E+04</rscale>
<asrwt>0</asrwt>
<pdfrwt beam="1">  1        1 0.49867378E+00 0.10052424E+04</pdfrwt>
<pdfrwt beam="2">  1       -1 0.13050600E-01 0.10052424E+04</pdfrwt>
<totfact> 0.16810358E+01</totfact>
</mgrwt>
</event>
<event>
 6      1 +3.0741590e+01 1.00310100e+03 7.81860800e-03 9.30515000e-02
        2 -1    0    0  502    0 -0.0000000000e+00 +0.0000000000e+00 +1.8319956659e+03 1.8319956659e+03 0.0000000000e+00 0.0000e+00 -1.0000e+00
       21 -1    0    0  501  502 +0.0000000000e+00 -0.0000000000e+00 -3.2821922668e+02 3.2821922668e+02 0.0000000000e+00 0.0000e+00 -1.0000e+00
  5000001  2    1    2    0    0 -9.1058770941e+00 -6.8407554438e+01 +1.6879624179e+03 1.9635248185e+03 1.0007247764e+03 0.0000e+00 0.0000e+00
  5000521  1    3    3    0    0 -1.7738453619e+02 -4.6716792363e+02 +1.2567160571e+03 1.3524593859e+03 1.0000000000e+01 0.0000e+00 -1.0000e+00
 -5000521  1    3    3    0    0 +1.6827865910e+02 +3.9876036919e+02 +4.3124636079e+02 6.1106543253e+02 1.0000000000e+01 0.0000e+00 1.0000e+00
        2  1    1    2  501    0 +9.1058770941e+00 +6.8407554438e+01 -1.8418597867e+02 1.9669007407e+02 0.0000000000e+00 0.0000e+00 -1.0000e+00
<mgrwt>
<rscale>  1 0.10031015E+04</rscale>
<asrwt>0</asrwt>
<pdfrwt beam="1">  1       21 0.50495267E-01 0.10031015E+04</pdfrwt>
<pdfrwt beam="2">  1        2 0.28184548E+00 0.10031015E+04</pdfrwt>
<totfact> 0.34327163E+02</totfact>
</mgrwt>
</event>
<event>
 6      1 +3.0741590e+01 9.92221600e+02 7.81860800e-03 9.31711700e-02
       21 -1    0    0  501  502 +0.0000000000e+00 +0.0000000000e+00 +3.3138029130e+02 3.3138029130e+02 0.0000000000e+00 0.0000e+00 1.0000e+00
        1 -1    0    0  502    0 -0.0000000000e+00 -0.0000000000e+00 -1.2459104570e+03 1.2459104570e+03 0.0000000000e+00 0.0000e+00 -1.0000e+00
  5000001  2    1    2    0    0 +2.9395375949e+01 -5.7812440419e+00 -1.0464168152e+03 1.4420443095e+03 9.9176919119e+02 0.0000e+00 0.0000e+00
  5000521  1    3    3    0    0 +2.3789796268e+02 -3.7066937330e+02 -1.7408426451e+02 4.7370513624e+02 1.0000000000e+01 0.0000e+00 -1.0000e+00
 -5000521  1    3    3    0    0 -2.0850258673e+02 +3.6488812925e+02 -8.7233255064e+02 9.6833917325e+02 1.0000000000e+01 0.0000e+00 1.0000e+00
        1  1    1    2  501    0 -2.9395375949e+01 +5.7812440419e+00 +1.3188664944e+02 1.3524643881e+02 0.0000000000e+00 0.0000e+00 -1.0000e+00
<mgrwt>
<rscale>  1 0.99222157E+03</rscale>
<asrwt>0</asrwt>
<pdfrwt beam="1">  1       21 0.50981583E-01 0.99222157E+03</pdfrwt>
<pdfrwt beam="2">  1        1 0.19167853E+00 0.99222157E+03</pdfrwt>
<totfact> 0.35305815E+02</totfact>
</mgrwt>
</event>
<event>
 6      1 +3.0741590e+01 9.98331500e+02 7.81860800e-03 9.31037700e-02
       -2 -1    0    0    0  501 -0.0000000000e+00 +0.0000000000e+00 +8.8397069260e+02 8.8397069260e+02 0.0000000000e+00 0.0000e+00 1.0000e+00
        2 -1    0    0  502    0 +0.0000000000e+00 -0.0000000000e+00 -3.4443610335e+02 3.4443610335e+02 0.0000000000e+00 0.0000e+00 -1.0000e+00
  5000001  2    1    2    0    0 -5.2261169324e+01 +3.8938461757e+01 +5.7715259641e+02 1.1531568917e+03 9.9620191918e+02 0.0000e+00 0.0000e+00
  5000521  1    3    3    0    0 +2.2913554807e+02 +3.0463915258e+02 +6.5532900534e+02 7.5819800706e+02 1.0000000000e+01 0.0000e+00 1.0000e+00
 -5000521  1    3    3    0    0 -2.8139671739e+02 -2.6570069083e+02 -7.8176408930e+01 3.9495888467e+02 1.0000000000e+01 0.0000e+00 -1.0000e+00
       21  1    1    2  502  501 +5.2261169324e+01 -3.8938461757e+01 -3.7618007153e+01 7.5249904221e+01 0.0000000000e+00 0.0000e+00 -1.0000e+00
<mgrwt>
<rscale>  1 0.99833146E+03</rscale>
<asrwt>0</asrwt>
<pdfrwt beam="1">  1        2 0.52990170E-01 0.99833146E+03</pdfrwt>
<pdfrwt beam="2">  1       -2 0.13599549E+00 0.99833146E+03</pdfrwt>
<totfact> 0.36312922E+01</totfact>
</mgrwt>
</event>
<event>
 6      1 +3.0741590e+01 1.00485500e+03 7.81860800e-03 9.30323500e-02
       21 -1    0    0  501  502 +0.0000000000e+00 +0.0000000000e+00 +4.0684988550e+02 4.0684988550e+02 0.0000000000e+00 0.0000e+00 1.0000e+00
       -2 -1    0    0    0  501 -0.0000000000e+00 -0.0000000000e+00 -1.0409115996e+03 1.0409115996e+03 0.0000000000e+00 0.0000e+00 -1.0000e+00
  5000001  2    1    2    0    0 +6.5522935897e+01 +2.8671584252e+01 -7.8868182163e+02 1.2774010069e+03 1.0023068402e+03 0.0000e+00 0.0000e+00
  5000521  1    3    3    0    0 +3.4906958451e+02 -1.1879785082e+02 +5.7038215439e+01 3.7325040148e+02 1.0000000000e+01 0.0000e+00 1.0000e+00
 -5000521  1    3    3    0    0 -2.8354664861e+02 +1.4746943507e+02 -8.4572003707e+02 9.0415060544e+02 1.0000000000e+01 0.0000e+00 -1.0000e+00
       -2  1    1    2    0  502 -6.5522935897e+01 -2.8671584252e+01 +1.5462010753e+02 1.7036047818e+02 0.0000000000e+00 0.0000e+00 -1.0000e+00
<mgrwt>
<rscale>  1 0.10048554E+04</rscale>
<asrwt>0</asrwt>
<pdfrwt beam="1">  1       21 0.62592289E-01 0.10048554E+04</pdfrwt>
<pdfrwt beam="2">  1       -2 0.16014025E+00 0.10048554E+04</pdfrwt>
<totfact> 0.42463236E+01</totfact>
</mgrwt>
</event>
<event>
 6      1 +3.0741590e+01 1.00448200e+03 7.81860800e-03 9.30364300e-02
       -1 -1    0    0    0  501 -0.0000000000e+00 +0.0000000000e+00 +3.9829330501e+02 3.9829330501e+02 0.0000000000e+00 0.0000e+00 -1.0000e+00
        1 -1    0    0  502    0 +0.0000000000e+00 -0.0000000000e+00 -8.4547109066e+02 8.4547109066e+02 0.0000000000e+00 0.0000e+00 1.0000e+00
  5000001  2    1    2    0    0 +1.1089138747e+02 -4.1676522759e+01 -2.8726380006e+02 1.0447510415e+03 9.9747201236e+02 0.0000e+00 0.0000e+00
  5000521  1    3    3    0    0 +2.0818214295e+02 -1.0851390976e+02 -6.3516410708e+02 6.7723593834e+02 1.0000000000e+01 0.0000e+00 1.0000e+00
 -5000521  1    3    3    0    0 -9.7290755479e+01 +6.6837387001e+01 +3.4790030702e+02 3.6751510312e+02 1.0000000000e+01 0.0000e+00 -1.0000e+00
       21  1    1    2  502  501 -1.1089138747e+02 +4.1676522759e+01 -1.5991398559e+02 1.9901335420e+02 0.0000000000e+00 0.0000e+00 1.0000e+00
<mgrwt>
<rscale>  1 0.10044821E+04</rscale>
<asrwt>0</asrwt>
<pdfrwt beam="1">  1        1 0.13007248E+00 0.10044821E+04</pdfrwt>
<pdfrwt beam="2">  1       -1 0.61275892E-01 0.10044821E+04</pdfrwt>
<totfact> 0.54704804E+01</totfact>
</mgrwt>
</event>
<event>
 6      1 +3.0741590e+01 1.00381800e+03 7.81860800e-03 9.30436700e-02
        1 -1    0    0  502    0 -0.0000000000e+00 +0.0000000000e+00 +5.2175329426e+02 5.2175329426e+02 0.0000000000e+00 0.0000e+00 1.0000e+00
       21 -1    0    0  501  502 +0.0000000000e+00 -0.0000000000e+00 -6.6880568791e+02 6.6880568791e+02 0.0000000000e+00 0.0000e+00 -1.0000e+00
  5000001  2    1    2    0    0 +6.9878221726e+01 +9.9697384857e+01 -5.4758702594e+00 1.0038333910e+03 9.9640802753e+02 0.0000e+00 0.0000e+00
  5000521  1    3    3    0    0 +3.2985275791e+02 -2.8211635459e+02 +2.2335796640e+02 4.8824303434e+02 1.0000000000e+01 0.0000e+00 1.0000e+00
 -5000521  1    3    3    0    0 -2.5997453618e+02 +3.8181373945e+02 -2.2883383666e+02 5.1559035667e+02 1.0000000000e+01 0.0000e+00 -1.0000e+00
        1  1    1    2  501    0 -6.9878221726e+01 -9.9697384857e+01 -1.4157652340e+02 1.8672559116e+02 0.0000000000e+00 0.0000e+00 1.0000e+00
<mgrwt>
<rscale>  1 0.10038185E+04</rscale>
<asrwt>0</asrwt>
<pdfrwt beam="1">  1       21 0.10289318E+00 0.10038185E+04</pdfrwt>
<pdfrwt beam="2">  1        1 0.80269738E-01 0.10038185E+04</pdfrwt>
<totfact> 0.29268334E+02</totfact>
</mgrwt>
</event>
<event>
 6      1 +3.0741590e+01 9.93510300e+02 7.81860800e-03 9.31569100e-02
        2 -1    0    0  502    0 +0.0000000000e+00 +0.0000000000e+00 +2.1635496944e+03 2.1635496944e+03 0.0000000000e+00 0.0000e+00 1.0000e+00
       -2 -1    0    0    0  501 -0.0000000000e+00 -0.0000000000e+00 -1.3674275129e+02 1.3674275129e+02 0.0000000000e+00 0.0000e+00 -1.0000e+00
  5000001  2    1    2    0    0 -3.8138942890e+01 -9.4204660238e+00 +2.0308060392e+03 2.2608042587e+03 9.9273329918e+02 0.0000e+00 0.0000e+00
  5000521  1    3    3    0    0 -7.0083680868e+01 -4.3058826040e+02 +1.5958304429e+03 1.6544161432e+03 1.0000000000e+01 0.0000e+00 1.0000e+00
 -5000521  1    3    3    0    0 +3.1944737978e+01 +4.2116779438e+02 +4.3497559629e+02 6.0638811554e+02 1.0000000000e+01 0.0000e+00 -1.0000e+00
       21  1    1    2  502  501 +3.8138942890e+01 +9.4204660238e+00 -3.9990960260e+00 3.9488187017e+01 0.0000000000e+00 0.0000e+00 1.0000e+00
<mgrwt>
<rscale>  1 0.99351031E+03</rscale>
<asrwt>0</asrwt>
<pdfrwt beam="1">  1        2 0.33285377E+00 0.99351031E+03</pdfrwt>
<pdfrwt beam="2">  1       -2 0.21037348E-01 0.99351031E+03</pdfrwt>
<totfact> 0.10635528E+02</totfact>
</mgrwt>
</event>
<event>
 6      1 +3.0741590e+01 9.98051400e+02 7.81860800e-03 9.31068500e-02
       -1 -1    0    0    0  501 -0.0000000000e+00 +0.0000000000e+00 +3.6012635511e+02 3.6012635511e+02 0.0000000000e+00 0.0000e+00 1.0000e+00
        1 -1    0    0  502    0 +0.0000000000e+00 -0.0000000000e+00 -9.1044401463e+02 9.1044401463e+02 0.0000000000e+00 0.0000e+00 -1.0000e+00
  5000001  2    1    2    0    0 +1.2091757702e+01 -3.3880425842e+01 -6.3199420755e+02 1.1813226675e+03 9.9740286367e+02 0.0000e+00 0.0000e+00
  5000521  1    3    3    0    0 +1.4172269034e+02 +2.7606742098e+02 -7.6053474999e+02 8.2146920078e+02 1.0000000000e+01 0.0000e+00 -1.0000e+00
 -5000521  1    3    3    0    0 -1.2963093264e+02 -3.0994784682e+02 +1.2854054244e+02 3.5985346670e+02 1.0000000000e+01 0.0000e+00 1.0000e+00
       21  1    1    2  502  501 -1.2091757702e+01 +3.3880425842e+01 +8.1676548034e+01 8.9247702258e+01 0.0000000000e+00 0.0000e+00 1.0000e+00
<mgrwt>
<rscale>  1 0.99805138E+03</rscale>
<asrwt>0</asrwt>
<pdfrwt beam="1">  1        1 0.14006831E+00 0.99805138E+03</pdfrwt>
<pdfrwt beam="2">  1       -1 0.55404055E-01 0.99805138E+03</pdfrwt>
<totfact> 0.58925602E+01</totfact>
</mgrwt>
</event>
<event>
 6      1 +3.0741590e+01 1.01215700e+03 7.81860800e-03 9.29531100e-02
       -2 -1    0    0    0  501 -0.0000000000e+00 +0.0000000000e+00 +7.9046993895e+02 7.9046993895e+02 0.0000000000e+00 0.0000e+00 -1.0000e+00
        2 -1    0    0  502    0 +0.0000000000e+00 -0.0000000000e+00 -3.5788982639e+02 3.5788982639e+02 0.0000000000e+00 0.0000e+00 1.0000e+00
  5000001  2    1    2    0    0 +3.4560553249e+01 -9.4232077168e+00 +3.7272407745e+02 1.0786032343e+03 1.0115228472e+03 0.0000e+00 0.0000e+00
  5000521  1    3    3    0    0 +2.2958410335e+02 -4.6169240980e+02 +1.4387250896e+02 5.3541389655e+02 1.0000000000e+01 0.0000e+00 -1.0000e+00
 -5000521  1    3    3    0    0 -1.9502355010e+02 +4.5226920208e+02 +2.2885156849e+02 5.4318933775e+02 1.0000000000e+01 0.0000e+00 1.0000e+00
       21  1    1    2  502  501 -3.4560553249e+01 +9.4232077168e+00 +5.9856035105e+01 6.9756531042e+01 0.0000000000e+00 0.0000e+00 -1.0000e+00
<mgrwt>
<rscale>  1 0.10121570E+04</rscale>
<asrwt>0</asrwt>
<pdfrwt beam="1">  1        2 0.55059974E-01 0.10121570E+04</pdfrwt>
<pdfrwt beam="2">  1       -2 0.12161076E+00 0.10121570E+04</pdfrwt>
<totfact> 0.46147413E+01</totfact>
</mgrwt>
</event>
<event>
 6      1 +3.0741590e+01 9.98388700e+02 7.81860800e-03 9.31031400e-02
       21 -1    0    0  501  502 +0.0000000000e+00 +0.0000000000e+00 +1.1868475708e+02 1.1868475708e+02 0.0000000000e+00 0.0000e+00 -1.0000e+00
        1 -1    0    0  502    0 -0.0000000000e+00 -0.0000000000e+00 -2.2199494591e+03 2.2199494591e+03 0.0000000000e+00 0.0000e+00 1.0000e+00
  5000001  2    1    2    0    0 +8.2463736061e+00 +2.6897060908e+01 -2.0480970031e+03 2.2784822522e+03 9.9799227697e+02 0.0000e+00 0.0000e+00
  5000521  1    3    3    0    0 +1.4750338674e+02 +3.6002506177e+02 -1.7967869953e+03 1.8384555477e+03 1.0000000000e+01 0.0000e+00 1.0000e+00
 -5000521  1    3    3    0    0 -1.3925701313e+02 -3.3312800086e+02 -2.5131000771e+02 4.4002670446e+02 1.0000000000e+01 0.0000e+00 -1.0000e+00
        1  1    1    2  501    0 -8.2463736061e+00 -2.6897060908e+01 -5.3167698959e+01 6.0151964022e+01 0.0000000000e+00 0.0000e+00 1.0000e+00
<mgrwt>
<rscale>  1 0.99838872E+03</rscale>
<asrwt>0</asrwt>
<pdfrwt beam="1">  1       21 0.18259197E-01 0.99838872E+03</pdfrwt>
<pdfrwt beam="2">  1        1 0.34153063E+00 0.99838872E+03</pdfrwt>
<totfact> 0.61076905E+02</totfact>
</mgrwt>
</event>
<event>
 6      1 +3.0741590e+01 1.02714800e+03 7.81860800e-03 9.27926000e-02
       -2 -1    0    0    0  501 -0.0000000000e+00 +0.0000000000e+00 +4.9233774020e+02 4.9233774020e+02 0.0000000000e+00 0.0000e+00 -1.0000e+00
        2 -1    0    0  502    0 +0.0000000000e+00 -0.0000000000e+00 -5.8551456294e+02 5.8551456294e+02 0.0000000000e+00 0.0000e+00 1.0000e+00
  5000001  2    1    2    0    0 +2.7560671905e+01 -2.0950353575e+01 -5.8439240418e+01 1.0288093875e+03 1.0265647096e+03 0.0000e+00 0.0000e+00
  5000521  1    3    3    0    0 +1.8246404004e+02 -2.8602635473e+02 +3.6969530516e+02 5.0187530340e+02 1.0000000000e+01 0.0000e+00 1.0000e+00
 -5000521  1    3    3    0    0 -1.5490336814e+02 +2.6507600115e+02 -4.2813454558e+02 5.2693408408e+02 1.0000000000e+01 0.0000e+00 -1.0000e+00
       21  1    1    2  502  501 -2.7560671905e+01 +2.0950353575e+01 -3.4737582320e+01 4.9042915658e+01 0.0000000000e+00 0.0000e+00 1.0000e+00
<mgrwt>
<rscale>  1 0.10271483E+04</rscale>
<asrwt>0</asrwt>
<pdfrwt beam="1">  1        2 0.90079163E-01 0.10271483E+04</pdfrwt>
<pdfrwt beam="2">  1       -2 0.75744268E-01 0.10271483E+04</pdfrwt>
<totfact> 0.79569011E+01</totfact>
</mgrwt>
</event>
<event>
 6      1 +3.0741590e+01 1.00712200e+03 7.81860800e-03 9.30076800e-02
       21 -1    0    0  501  502 +0.0000000000e+00 +0.0000000000e+00 +2.1605533668e+03 2.1605533668e+03 0.0000000000e+00 0.0000e+00 -1.0000e+00
        2 -1    0    0  502    0 -0.0000000000e+00 -0.0000000000e+00 -1.2645309342e+02 1.2645309342e+02 0.0000000000e+00 0.0000e+00 1.0000e+00
  5000001  2    1    2    0    0 -1.7958285785e+01 -1.4775994261e+01 +1.8952462864e+03 2.1462184645e+03 1.0068537040e+03 0.0000e+00 0.0000e+00
  5000521  1    3    3    0    0 +1.7438188204e+02 +4.6145792711e+02 +9.3268858233e+02 1.0551589695e+03 1.0000000000e+01 0.0000e+00 1.0000e+00
 -5000521  1    3    3    0    0 -1.9234016782e+02 -4.7623392137e+02 +9.6255770409e+02 1.0910594950e+03 1.0000000000e+01 0.0000e+00 -1.0000e+00
        2  1    1    2  501    0 +1.7958285785e+01 +1.4775994261e+01 +1.3885398698e+02 1.4078799570e+02 0.0000000000e+00 0.0000e+00 1.0000e+00
<mgrwt>
<rscale>  1 0.10071222E+04</rscale>
<asrwt>0</asrwt>
<pdfrwt beam="1">  1       21 0.33239280E+00 0.10071222E+04</pdfrwt>
<pdfrwt beam="2">  1        2 0.19454324E-01 0.10071222E+04</pdfrwt>
<totfact> 0.53562512E+01</totfact>
</mgrwt>
</event>
<event>
 6      1 +3.0741590e+01 1.00427200e+03 7.81860800e-03 9.30387200e-02
        1 -1    0    0  502    0 +0.0000000000e+00 +0.0000000000e+00 +4.8578496869e+02 4.8578496869e+02 0.0000000000e+00 0.0000e+00 1.0000e+00
       -1 -1    0    0    0  501 -0.0000000000e+00 -0.0000000000e+00 -7.3975505343e+02 7.3975505343e+02 0.0000000000e+00 0.0000e+00 -1.0000e+00
  5000001  2    1    2    0    0 -1.7009217174e+02 +4.9953808272e+00 -3.0205129931e+02 1.0487121286e+03 9.8975039309e+02 0.0000e+00 0.0000e+00
  5000521  1    3    3    0    0 +3.8782359793e+02 -1.3762786738e+00 +4.6546365628e+01 3.9073725367e+02 1.0000000000e+01 0.0000e+00 -1.0000e+00
 -5000521  1    3    3    0    0 -5.5791576967e+02 +6.3716595011e+00 -3.4859766494e+02 6.5797487497e+02 1.0000000000e+01 0.0000e+00 1.0000e+00
       21  1    1    2  502  501 +1.7009217174e+02 -4.9953808272e+00 +4.8081214580e+01 1.7682789348e+02 0.0000000000e+00 0.0000e+00 1.0000e+00
<mgrwt>
<rscale>  1 0.10042719E+04</rscale>
<asrwt>0</asrwt>
<pdfrwt beam="1">  1        1 0.74736150E-01 0.10042719E+04</pdfrwt>
<pdfrwt beam="2">  1       -1 0.11380847E+00 0.10042719E+04</pdfrwt>
<totfact> 0.32542194E+01</totfact>
</mgrwt>
</event>
<event>
 6      1 +3.0741590e+01 9.66152400e+02 7.81860800e-03 9.34646800e-02
        1 -1    0    0  502    0 +0.0000000000e+00 +0.0000000000e+00 +5.2893418124e+02 5.2893418124e+02 0.0000000000e+00 0.0000e+00 1.0000e+00
       -1 -1    0    0    0  501 -0.0000000000e+00 -0.0000000000e+00 -4.9876810962e+02 4.9876810962e+02 0.0000000000e+00 0.0000e+00 -1.0000e+00
  5000001  2    1    2    0    0 -5.1065819899e+01 -5.7829015624e+00 -3.6919436762e+00 9.6615941872e+02 9.6478455212e+02 0.0000e+00 0.0000e+00
  5000521  1    3    3    0    0 +1.7490055871e+02 +3.4820438544e+02 -2.6508937110e+02 4.7139036281e+02 1.0000000000e+01 0.0000e+00 -1.0000e+00
 -5000521  1    3    3    0    0 -2.2596637861e+02 -3.5398728700e+02 +2.6139742742e+02 4.9476905591e+02 1.0000000000e+01 0.0000e+00 1.0000e+00
       21  1    1    2  502  501 +5.1065819899e+01 +5.7829015624e+00 +3.3858015298e+01 6.1542872149e+01 0.0000000000e+00 0.0000e+00 1.0000e+00
<mgrwt>
<rscale>  1 0.96615236E+03</rscale>
<asrwt>0</asrwt>
<pdfrwt beam="1">  1        1 0.81374489E-01 0.96615236E+03</pdfrwt>
<pdfrwt beam="2">  1       -1 0.76733556E-01 0.96615236E+03</pdfrwt>
<totfact> 0.70194261E+01</totfact>
</mgrwt>
</event>
<event>
 6      1 +3.0741590e+01 1.00452000e+03 7.81860800e-03 9.30360100e-02
       -2 -1    0    0    0  501 -0.0000000000e+00 +0.0000000000e+00 +2.8014231426e+02 2.8014231426e+02 0.0000000000e+00 0.0000e+00 1.0000e+00
        2 -1    0    0  502    0 +0.0000000000e+00 -0.0000000000e+00 -1.0271235657e+03 1.0271235657e+03 0.0000000000e+00 0.0000e+00 -1.0000e+00
  5000001  2    1    2    0    0 -2.7195934343e+01 -4.9782380961e+01 -7.4476828019e+02 1.2504961561e+03 1.0029172155e+03 0.0000e+00 0.0000e+00
  5000521  1    3    3    0    0 +2.4384299584e+02 +4.0065676102e+02 -2.6550294101e+02 5.3905199977e+02 1.0000000000e+01 0.0000e+00 1.0000e+00
 -5000521  1    3    3    0    0 -2.7103893019e+02 -4.5043914198e+02 -4.7926533917e+02 7.1144415637e+02 1.0000000000e+01 0.0000e+00 -1.0000e+00
       21  1    1    2  502  501 +2.7195934343e+01 +4.9782380961e+01 -2.2129712327e+00 5.6769723803e+01 0.0000000000e+00 0.0000e+00 1.0000e+00
<mgrwt>
<rscale>  1 0.10045202E+04</rscale>
<asrwt>0</asrwt>
<pdfrwt beam="1">  1        2 0.15801901E+00 0.10045202E+04</pdfrwt>
<pdfrwt beam="2">  1       -2 0.43098817E-01 0.10045202E+04</pdfrwt>
<totfact> 0.12320024E+02</totfact>
</mgrwt>
</event>
<event>
 6      1 +3.0741590e+01 9.96616600e+02 7.81860800e-03 9.31226300e-02
        1 -1    0    0  502    0 +0.0000000000e+00 +0.0000000000e+00 +8.8691381902e+02 8.8691381902e+02 0.0000000000e+00 0.0000e+00 -1.0000e+00
       -1 -1    0    0    0  501 -0.0000000000e+00 -0.0000000000e+00 -3.0220841966e+02 3.0220841966e+02 0.0000000000e+00 0.0000e+00 1.0000e+00
  5000001  2    1    2    0    0 -2.8367617012e+01 +2.1992329157e+01 +5.4618056868e+02 1.1364672597e+03 9.9596999675e+02 0.0000e+00 0.0000e+00
  5000521  1    3    3    0    0 +3.5413172569e+02 +3.3601395411e+02 +1.7858495032e+02 5.1991080098e+02 1.0000000000e+01 0.0000e+00 -1.0000e+00
 -5000521  1    3    3    0    0 -3.8249934270e+02 -3.1402162495e+02 +3.6759561836e+02 6.1655645868e+02 1.0000000000e+01 0.0000e+00 1.0000e+00
       21  1    1    2  502  501 +2.8367617012e+01 -2.1992329157e+01 +3.8524830684e+01 5.2654979023e+01 0.0000000000e+00 0.0000e+00 -1.0000e+00
<mgrwt>
<rscale>  1 0.99661659E+03</rscale>
<asrwt>0</asrwt>
<pdfrwt beam="1">  1        1 0.13644828E+00 0.99661659E+03</pdfrwt>
<pdfrwt beam="2">  1       -1 0.46493603E-01 0.99661659E+03</pdfrwt>
<totfact> 0.86127969E+01</totfact>
</mgrwt>
</event>
<event>
 6      1 +3.0741590e+01 9.75336000e+02 7.81860800e-03 9.33601700e-02
       -1 -1    0    0    0  501 -0.0000000000e+00 +0.0000000000e+00 +4.8168306506e+02 4.8168306506e+02 0.0000000000e+00 0.0000e+00 1.0000e+00
        1 -1    0    0  502    0 +0.0000000000e+00 -0.0000000000e+00 -7.5570345624e+02 7.5570345624e+02 0.0000000000e+00 0.0000e+00 -1.0000e+00
  5000001  2    1    2    0    0 -4.3079531905e+00 -2.7846113223e+01 -1.3584310304e+01 9.7543057709e+02 9.7492887574e+02 0.0000e+00 0.0000e+00
  5000521  1    3    3    0    0 +2.3410536074e+01 +3.4681562856e+02 +3.2025464153e+02 4.7274958365e+02 1.0000000000e+01 0.0000e+00 1.0000e+00
 -5000521  1    3    3    0    0 -2.7718489264e+01 -3.7466174179e+02 -3.3383895184e+02 5.0268099345e+02 1.0000000000e+01 0.0000e+00 -1.0000e+00
       21  1    1    2  502  501 +4.3079531905e+00 +2.7846113223e+01 -2.6043608087e+02 2.6195594420e+02 0.0000000000e+00 0.0000e+00 -1.0000e+00
<mgrwt>
<rscale>  1 0.97533598E+03</rscale>
<asrwt>0</asrwt>
<pdfrwt beam="1">  1        1 0.11626207E+00 0.97533598E+03</pdfrwt>
<pdfrwt beam="2">  1       -1 0.74105087E-01 0.97533598E+03</pdfrwt>
<totfact> 0.44571817E+01</totfact>
</mgrwt>
</event>
<event>
 6      1 +3.0741590e+01 1.00478100e+03 7.81860800e-03 9.30331700e-02
       -1 -1    0    0    0  501 -0.0000000000e+00 +0.0000000000e+00 +1.2945090974e+03 1.2945090974e+03 0.0000000000e+00 0.0000e+00 1.0000e+00
        1 -1    0    0  502    0 +0.0000000000e+00 -0.0000000000e+00 -2.5808975358e+02 2.5808975358e+02 0.0000000000e+00 0.0000e+00 -1.0000e+00
  5000001  2    1    2    0    0 -8.6154836517e+01 +5.7567258087e+01 +7.6739584963e+02 1.2643103055e+03 9.9942359057e+02 0.0000e+00 0.0000e+00
  5000521  1    3    3    0    0 +2.1370961784e+02 -1.2315863361e+01 +9.0274066685e+02 9.2782767411e+02 1.0000000000e+01 0.0000e+00 1.0000e+00
 -5000521  1    3    3    0    0 -2.9986445435e+02 +6.9883121447e+01 -1.3534481722e+02 3.3648263134e+02 1.0000000000e+01 0.0000e+00 -1.0000e+00
       21  1    1    2  502  501 +8.6154836517e+01 -5.7567258087e+01 +2.6902349420e+02 2.8828854554e+02 0.0000000000e+00 0.0000e+00 -1.0000e+00
<mgrwt>
<rscale>  1 0.10047807E+04</rscale>
<asrwt>0</asrwt>
<pdfrwt beam="1">  1        1 0.39706117E-01 0.10047807E+04</pdfrwt>
<pdfrwt beam="2">  1       -1 0.19915524E+00 0.10047807E+04</pdfrwt>
<totfact> 0.16342922E+01</totfact>
</mgrwt>
</event>
<event>
 6      1 +3.0741590e+01 1.00632500e+03 7.81860800e-03 9.30163500e-02
       -2 -1    0    0    0  501 -0.0000000000e+00 +0.0000000000e+00 +2.3206743588e+02 2.3206743588e+02 0.0000000000e+00 0.0000e+00 -1.0000e+00
        2 -1    0    0  502    0 +0.0000000000e+00 -0.0000000000e+00 -1.6366713338e+03 1.6366713338e+03 0.0000000000e+00 0.0000e+00 1.0000e+00
  5000001  2    1    2    0    0 +3.1990607675e+01 +2.7010402619e+01 -1.4757396725e+03 1.7861963004e+03 1.0054534707e+03 0.0000e+00 0.0000e+00
  5000521  1    3    3    0    0 -3.7492686807e+02 -2.7672827617e+02 -9.3265063788e+02 1.0426341197e+03 1.0000000000e+01 0.0000e+00 1.0000e+00
 -5000521  1    3    3    0    0 +4.0691747575e+02 +3.0373867879e+02 -5.4308903458e+02 7.4356218069e+02 1.0000000000e+01 0.0000e+00 -1.0000e+00
       21  1    1    2  502  501 -3.1990607675e+01 -2.7010402619e+01 +7.1135774502e+01 8.2542469330e+01 0.0000000000e+00 0.0000e+00 1.0000e+00
<mgrwt>
<rscale>  1 0.10063248E+04</rscale>
<asrwt>0</asrwt>
<pdfrwt beam="1">  1        2 0.25179559E+00 0.10063248E+04</pdfrwt>
<pdfrwt beam="2">  1       -2 0.35702682E-01 0.10063248E+04</pdfrwt>
<totfact> 0.78380957E+01</totfact>
</mgrwt>
</event>
<event>
 6      1 +3.0741590e+01 1.01413000e+03 7.81860800e-03 9.29318200e-02
       21 -1    0    0  501  502 +0.0000000000e+00 +0.0000000000e+00 +1.1176208989e+03 1.1176208989e+03 0.0000000000e+00 0.0000e+00 1.0000e+00
       -2 -1    0    0    0  501 -0.0000000000e+00 -0.0000000000e+00 -4.5509622935e+02 4.5509622935e+02 0.0000000000e+00 0.0000e+00 1.0000e+00
  5000001  2    1    2    0    0 -2.0510532114e+02 -5.2982467055e+01 +1.5909521919e+02 1.0265335089e+03 9.9175824751e+02 0.0000e+00 0.0000e+00
  5000521  1    3    3    0    0 -6.7856422734e+01 -1.0218251917e+02 -4.1565638169e+02 4.3349277845e+02 1.0000000000e+01 0.0000e+00 1.0000e+00
 -5000521  1    3    3    0    0 -1.3724889841e+02 +4.9200052115e+01 +5.7475160087e+02 5.9304073043e+02 1.0000000000e+01 0.0000e+00 -1.0000e+00
       -2  1    1    2    0  502 +2.0510532114e+02 +5.2982467055e+01 +5.0342945033e+02 5.4618361934e+02 0.0000000000e+00 0.0000e+00 1.0000e+00
<mgrwt>
<rscale>  1 0.10141300E+04</rscale>
<asrwt>0</asrwt>
<pdfrwt beam="1">  1       21 0.17194168E+00 0.10141300E+04</pdfrwt>
<pdfrwt beam="2">  1       -2 0.70014805E-01 0.10141300E+04</pdfrwt>
<totfact> 0.24501788E+01</totfact>
</mgrwt>
</event>
<event>
 6      1 +3.0741590e+01 9.96359700e+02 7.81860800e-03 9.31254600e-02
        2 -1    0    0  502    0 +0.0000000000e+00 +0.0000000000e+00 +1.4929729389e+03 1.4929729389e+03 0.0000000000e+00 0.0000e+00 1.0000e+00
       -2 -1    0    0    0  501 -0.0000000000e+00 -0.0000000000e+00 -1.7328855036e+02 1.7328855036e+02 0.0000000000e+00 0.0000e+00 -1.0000e+00
  5000001  2    1    2    0    0 -1.6494111534e+01 -1.2841658835e+01 +1.2939317165e+03 1.6330927686e+03 9.9614042172e+02 0.0000e+00 0.0000e+00
  5000521  1    3    3    0    0 +4.8950768072e+02 -4.1319282769e+00 +6.6352087848e+02 8.2461797125e+02 1.0000000000e+01 0.0000e+00 -1.0000e+00
 -5000521  1    3    3    0    0 -5.0600179226e+02 -8.7097305582e+00 +6.3041083806e+02 8.0847479733e+02 1.0000000000e+01 0.0000e+00 1.0000e+00
       21  1    1    2  502  501 +1.6494111534e+01 +1.2841658835e+01 +2.5752671976e+01 3.3168720669e+01 0.0000000000e+00 0.0000e+00 -1.0000e+00
<mgrwt>
<rscale>  1 0.99635973E+03</rscale>
<asrwt>0</asrwt>
<pdfrwt beam="1">  1        2 0.22968814E+00 0.99635973E+03</pdfrwt>
<pdfrwt beam="2">  1       -2 0.26659778E-01 0.99635973E+03</pdfrwt>
<totfact> 0.16309096E+02</totfact>
</mgrwt>
</event>
<event>
 6      1 +3.0741590e+01 9.83171200e+02 7.81860800e-03 9.32719700e-02
       21 -1    0    0  501  502 +0.0000000000e+00 +0.0000000000e+00 +8.2366806854e+01 8.2366806854e+01 0.0000000000e+00 0.0000e+00 1.0000e+00
        1 -1    0    0  502    0 -0.0000000000e+00 -0.0000000000e+00 -3.1145143122e+03 3.1145143122e+03 0.0000000000e+00 0.0000e+00 -1.0000e+00
  5000001  2    1    2    0    0 -4.5320627273e-01 +2.0672041689e+01 -3.0103651974e+03 3.1668476770e+03 9.8295373687e+02 0.0000e+00 0.0000e+00
  5000521  1    3    3    0    0 +3.0417810647e+02 +2.7011065275e+02 -2.4400860982e+03 2.4737833882e+03 1.0000000000e+01 0.0000e+00 -1.0000e+00
 -5000521  1    3    3    0    0 -3.0463131274e+02 -2.4943861106e+02 -5.7027909923e+02 6.9306428880e+02 1.0000000000e+01 0.0000e+00 1.0000e+00
        1  1    1    2  501    0 +4.5320627273e-01 -2.0672041689e+01 -2.1782307985e+01 3.0033442105e+01 0.0000000000e+00 0.0000e+00 -1.0000e+00
<mgrwt>
<rscale>  1 0.98317119E+03</rscale>
<asrwt>0</asrwt>
<pdfrwt beam="1">  1       21 0.12671817E-01 0.98317119E+03</pdfrwt>
<pdfrwt beam="2">  1        1 0.47915603E+00 0.98317119E+03</pdfrwt>
<totfact> 0.28884013E+02</totfact>
</mgrwt>
</event>
<event>
 6      1 +3.0741590e+01 1.02212700e+03 7.81860800e-03 9.28460400e-02
        1 -1    0    0  502    0 +0.0000000000e+00 +0.0000000000e+00 +1.1114546896e+03 1.1114546896e+03 0.0000000000e+00 0.0000e+00 1.0000e+00
       -1 -1    0    0    0  501 -0.0000000000e+00 -0.0000000000e+00 -3.6901481952e+02 3.6901481952e+02 0.0000000000e+00 0.0000e+00 -1.0000e+00
  5000001  2    1    2    0    0 -9.5912476220e+01 -6.1523715773e+01 +8.4574745634e+02 1.3266617457e+03 1.0157550182e+03 0.0000e+00 0.0000e+00
  5000521  1    3    3    0    0 +2.5973526574e+02 -2.7131646983e+02 -1.0629747440e+01 3.7588299589e+02 1.0000000000e+01 0.0000e+00 -1.0000e+00
 -5000521  1    3    3    0    0 -3.5564774195e+02 +2.0979275406e+02 +8.5637720378e+02 9.5077874985e+02 1.0000000000e+01 0.0000e+00 1.0000e+00
       21  1    1    2  502  501 +9.5912476220e+01 +6.1523715773e+01 -1.0330758626e+02 1.5380776338e+02 0.0000000000e+00 0.0000e+00 1.0000e+00
<mgrwt>
<rscale>  1 0.10221265E+04</rscale>
<asrwt>0</asrwt>
<pdfrwt beam="1">  1        1 0.17099303E+00 0.10221265E+04</pdfrwt>
<pdfrwt beam="2">  1       -1 0.56771511E-01 0.10221265E+04</pdfrwt>
<totfact> 0.39094246E+01</totfact>
</mgrwt>
</event>
<event>
 6      1 +3.0741590e+01 1.00503800e+03 7.81860800e-03 9.30303700e-02
        1 -1    0    0  502    0 +0.0000000000e+00 +0.0000000000e+00 +9.5388583352e+02 9.5388583352e+02 0.0000000000e+00 0.0000e+00 -1.0000e+00
       -1 -1    0    0    0  501 -0.0000000000e+00 -0.0000000000e+00 -3.1405201766e+02 3.1405201766e+02 0.0000000000e+00 0.0000e+00 1.0000e+00
  5000001  2    1    2    0    0 +5.1323744658e+00 -3.2932238273e+01 +6.8170355347e+02 1.2144219796e+03 1.0044850104e+03 0.0000e+00 0.0000e+00
  5000521  1    3    3    0    0 -6.1924351734e+01 -1.7610247104e+02 +9.1418353598e+02 9.3310141094e+02 1.0000000000e+01 0.0000e+00 -1.0000e+00
 -5000521  1    3    3    0    0 +6.7056726200e+01 +1.4317023277e+02 -2.3247998251e+02 2.8132056865e+02 1.0000000000e+01 0.0000e+00 1.0000e+00
       21  1    1    2  502  501 -5.1323744658e+00 +3.2932238273e+01 -4.1869737608e+01 5.3515871596e+01 0.0000000000e+00 0.0000e+00 -1.0000e+00
<mgrwt>
<rscale>  1 0.10050378E+04</rscale>
<asrwt>0</asrwt>
<pdfrwt beam="1">  1        1 0.14675167E+00 0.10050378E+04</pdfrwt>
<pdfrwt beam="2">  1       -1 0.48315696E-01 0.10050378E+04</pdfrwt>
<totfact> 0.70639976E+01</totfact>
</mgrwt>
</event>
<event>
 6      1 +3.0741590e+01 9.92775300e+02 7.81860800e-03 9.31650400e-02
        2 -1    0    0  502    0 +0.0000000000e+00 +0.0000000000e+00 +3.2315500636e+02 3.2315500636e+02 0.0000000000e+00 0.0000e+00 1.0000e+00
       -2 -1    0    0    0  501 -0.0000000000e+00 -0.0000000000e+00 -8.2307785235e+02 8.2307785235e+02 0.0000000000e+00 0.0000e+00 -1.0000e+00
  5000001  2    1    2    0    0 -1.9821590904e+01 +2.6865034744e+01 -5.0258309101e+02 1.1127410319e+03 9.9221379511e+02 0.0000e+00 0.0000e+00
  5000521  1    3    3    0    0 -3.8197960947e+02 +3.4120592050e+02 -2.3665193923e+02 5.6429960356e+02 1.0000000000e+01 0.0000e+00 1.0000e+00
 -5000521  1    3    3    0    0 +3.6215801856e+02 -3.1434088576e+02 -2.6593115178e+02 5.4844142837e+02 1.0000000000e+01 0.0000e+00 -1.0000e+00
       21  1    1    2  502  501 +1.9821590904e+01 -2.6865034744e+01 +2.6602450196e+00 3.3491826784e+01 0.0000000000e+00 0.0000e+00 -1.0000e+00
<mgrwt>
<rscale>  1 0.99277532E+03</rscale>
<asrwt>0</asrwt>
<pdfrwt beam="1">  1        2 0.49716156E-01 0.99277532E+03</pdfrwt>
<pdfrwt beam="2">  1       -2 0.12662736E+00 0.99277532E+03</pdfrwt>
<totfact> 0.46798053E+01</totfact>
</mgrwt>
</event>
<event>
 6      1 +3.0741590e+01 1.01677300e+03 7.81860800e-03 9.29033700e-02
       -2 -1    0    0    0  501 -0.0000000000e+00 +0.0000000000e+00 +3.6460382348e+02 3.6460382348e+02 0.0000000000e+00 0.0000e+00 1.0000e+00
        2 -1    0    0  502    0 +0.0000000000e+00 -0.0000000000e+00 -1.0099300075e+03 1.0099300075e+03 0.0000000000e+00 0.0000e+00 -1.0000e+00
  5000001  2    1    2    0    0 +1.7433671923e+02 -8.9498346426e+01 -5.6010207001e+02 1.1608368603e+03 9.9770969810e+02 0.0000e+00 0.0000e+00
  5000521  1    3    3    0    0 -2.8953982276e+02 -1.1192168970e+02 +1.2358951699e+02 3.3426657371e+02 1.0000000000e+01 0.0000e+00 1.0000e+00
 -5000521  1    3    3    0    0 +4.6387654199e+02 +2.2423343275e+01 -6.8369158700e+02 8.2657028658e+02 1.0000000000e+01 0.0000e+00 -1.0000e+00
       21  1    1    2  502  501 -1.7433671923e+02 +8.9498346426e+01 -8.5224114039e+01 2.1369697073e+02 0.0000000000e+00 0.0000e+00 -1.0000e+00
<mgrwt>
<rscale>  1 0.10167733E+04</rscale>
<asrwt>0</asrwt>
<pdfrwt beam="1">  1        2 0.15537385E+00 0.10167733E+04</pdfrwt>
<pdfrwt beam="2">  1       -2 0.56092896E-01 0.10167733E+04</pdfrwt>
<totfact> 0.73796380E+01</totfact>
</mgrwt>
</event>
<event>
 6      1 +3.0741590e+01 1.07219100e+03 7.81860800e-03 9.23272900e-02
        2 -1    0    0  502    0 +0.0000000000e+00 +0.0000000000e+00 +2.8412527107e+03 2.8412527107e+03 0.0000000000e+00 0.0000e+00 1.0000e+00
       -2 -1    0    0    0  501 -0.0000000000e+00 -0.0000000000e+00 -1.4491740514e+02 1.4491740514e+02 0.0000000000e+00 0.0000e+00 -1.0000e+00
  5000001  2    1    2    0    0 -1.0664011739e+02 +1.5710559316e+02 +2.0630424970e+03 2.3250240931e+03 1.0552432928e+03 0.0000e+00 0.0000e+00
  5000521  1    3    3    0    0 -2.2864557272e+02 -3.2970910903e+02 +1.5734369213e+03 1.6238197682e+03 1.0000000000e+01 0.0000e+00 -1.0000e+00
 -5000521  1    3    3    0    0 +1.2200545533e+02 +4.8681470219e+02 +4.8960557575e+02 7.0120432486e+02 1.0000000000e+01 0.0000e+00 1.0000e+00
       21  1    1    2  502  501 +1.0664011739e+02 -1.5710559316e+02 +6.3329280855e+02 6.6114602275e+02 0.0000000000e+00 0.0000e+00 1.0000e+00
<mgrwt>
<rscale>  1 0.10721906E+04</rscale>
<asrwt>0</asrwt>
<pdfrwt beam="1">  1        2 0.43711576E+00 0.10721906E+04</pdfrwt>
<pdfrwt beam="2">  1       -2 0.22294988E-01 0.10721906E+04</pdfrwt>
<totfact> 0.38863570E+01</totfact>
</mgrwt>
</event>
<event>
 6      1 +3.0741590e+01 1.00809900e+03 7.81860800e-03 9.29970700e-02
        2 -1    0    0  502    0 +0.0000000000e+00 +0.0000000000e+00 +5.9656487154e+02 5.9656487154e+02 0.0000000000e+00 0.0000e+00 -1.0000e+00
       -2 -1    0    0    0  501 -0.0000000000e+00 -0.0000000000e+00 -4.5729289234e+02 4.5729289234e+02 0.0000000000e+00 0.0000e+00 1.0000e+00
  5000001  2    1    2    0    0 -1.3981362145e+01 -3.3711571160e+01 +1.3320708277e+02 1.0168613926e+03 1.0074378474e+03 0.0000e+00 0.0000e+00
  5000521  1    3    3    0    0 -1.5440824508e+02 +3.1354265553e+02 -2.8808759231e+02 4.5304013490e+02 1.0000000000e+01 0.0000e+00 1.0000e+00
 -5000521  1    3    3    0    0 +1.4042688294e+02 -3.4725422669e+02 +4.2129467508e+02 5.6382125772e+02 1.0000000000e+01 0.0000e+00 -1.0000e+00
       21  1    1    2  502  501 +1.3981362145e+01 +3.3711571160e+01 +6.0648964270e+00 3.6996371257e+01 0.0000000000e+00 0.0000e+00 1.0000e+00
<mgrwt>
<rscale>  1 0.10080987E+04</rscale>
<asrwt>0</asrwt>
<pdfrwt beam="1">  1        2 0.91779211E-01 0.10080987E+04</pdfrwt>
<pdfrwt beam="2">  1       -2 0.70352753E-01 0.10080987E+04</pdfrwt>
<totfact> 0.91668621E+01</totfact>
</mgrwt>
</event>
<event>
 6      1 +3.0741590e+01 9.88267700e+02 7.81860800e-03 9.32150700e-02
       21 -1    0    0  501  502 +0.0000000000e+00 +0.0000000000e+00 +1.8074666592e+02 1.8074666592e+02 0.0000000000e+00 0.0000e+00 1.0000e+00
        1 -1    0    0  502    0 -0.0000000000e+00 -0.0000000000e+00 -2.4015579350e+03 2.4015579350e+03 0.0000000000e+00 0.0000e+00 -1.0000e+00
  5000001  2    1    2    0    0 +5.6431458029e+01 +3.2299377086e+01 -2.2858502097e+03 2.4903381776e+03 9.8612641083e+02 0.0000e+00 0.0000e+00
  5000521  1    3    3    0    0 -4.5056395201e+02 -5.1406449868e+01 -8.2145519063e+02 9.3837046423e+02 1.0000000000e+01 0.0000e+00 -1.0000e+00
 -5000521  1    3    3    0    0 +5.0699541004e+02 +8.3705826955e+01 -1.4643950191e+03 1.5519677133e+03 1.0000000000e+01 0.0000e+00 1.0000e+00
        1  1    1    2  501    0 -5.6431458029e+01 -3.2299377086e+01 +6.5038940675e+01 9.1966423327e+01 0.0000000000e+00 0.0000e+00 -1.0000e+00
<mgrwt>
<rscale>  1 0.98826771E+03</rscale>
<asrwt>0</asrwt>
<pdfrwt beam="1">  1       21 0.27807181E-01 0.98826771E+03</pdfrwt>
<pdfrwt beam="2">  1        1 0.36947043E+00 0.98826771E+03</pdfrwt>
<totfact> 0.20221692E+02</totfact>
</mgrwt>
</event>
<event>
 6      1 +3.0741590e+01 1.03081800e+03 7.81860800e-03 9.27537600e-02
        2 -1    0    0  502    0 +0.0000000000e+00 +0.0000000000e+00 +3.2088753692e+02 3.2088753692e+02 0.0000000000e+00 0.0000e+00 1.0000e+00
       -2 -1    0    0    0  501 -0.0000000000e+00 -0.0000000000e+00 -9.4449884299e+02 9.4449884299e+02 0.0000000000e+00 0.0000e+00 -1.0000e+00
  5000001  2    1    2    0    0 -1.5871626720e+00 +3.0166523507e+01 -6.5540332346e+02 1.2215312708e+03 1.0303749759e+03 0.0000e+00 0.0000e+00
  5000521  1    3    3    0    0 +3.0792831993e+00 +4.8521540429e+02 -8.6556730119e+01 4.9298634674e+02 1.0000000000e+01 0.0000e+00 1.0000e+00
 -5000521  1    3    3    0    0 -4.6664458713e+00 -4.5504888078e+02 -5.6884659334e+02 7.2854492406e+02 1.0000000000e+01 0.0000e+00 -1.0000e+00
       21  1    1    2  502  501 +1.5871626720e+00 -3.0166523507e+01 +3.1792017388e+01 4.3855109114e+01 0.0000000000e+00 0.0000e+00 1.0000e+00
<mgrwt>
<rscale>  1 0.10308177E+04</rscale>
<asrwt>0</asrwt>
<pdfrwt beam="1">  1        2 0.49367313E-01 0.10308177E+04</pdfrwt>
<pdfrwt beam="2">  1       -2 0.14530751E+00 0.10308177E+04</pdfrwt>
<totfact> 0.33026669E+01</totfact>
</mgrwt>
</event>
<event>
 6      1 +3.0741590e+01 9.12626400e+02 7.81860800e-03 9.40993400e-02
        2 -1    0    0  502    0 -0.0000000000e+00 +0.0000000000e+00 +1.2448142348e+03 1.2448142348e+03 0.0000000000e+00 0.0000e+00 1.0000e+00
       21 -1    0    0  501  502 +0.0000000000e+00 -0.0000000000e+00 -2.2217833788e+02 2.2217833788e+02 0.0000000000e+00 0.0000e+00 -1.0000e+00
  5000001  2    1    2    0    0 -2.0884663997e-01 +1.3535523030e+02 +8.4573778043e+02 1.2442505120e+03 9.0253302506e+02 0.0000e+00 0.0000e+00
  5000521  1    3    3    0    0 +8.6905403823e+01 -1.4518296532e+01 -1.8173157608e+02 2.0221200729e+02 1.0000000000e+01 0.0000e+00 -1.0000e+00
 -5000521  1    3    3    0    0 -8.7114250463e+01 +1.4987352683e+02 +1.0274693565e+03 1.0420385047e+03 1.0000000000e+01 0.0000e+00 1.0000e+00
        2  1    1    2  501    0 +2.0884663997e-01 -1.3535523030e+02 +1.7689811646e+02 2.2274206067e+02 0.0000000000e+00 0.0000e+00 1.0000e+00
<mgrwt>
<rscale>  1 0.91262640E+03</rscale>
<asrwt>0</asrwt>
<pdfrwt beam="1">  1       21 0.34181283E-01 0.91262640E+03</pdfrwt>
<pdfrwt beam="2">  1        2 0.19150988E+00 0.91262640E+03</pdfrwt>
<totfact> 0.16881559E+03</totfact>
</mgrwt>
</event>
<event>
 6      1 +3.0741590e+01 9.96690300e+02 7.81860800e-03 9.31218200e-02
       -4 -1    0    0    0  501 -0.0000000000e+00 +0.0000000000e+00 +4.9458735823e+02 4.9458735823e+02 0.0000000000e+00 0.0000e+00 1.0000e+00
        4 -1    0    0  502    0 +0.0000000000e+00 -0.0000000000e+00 -5.6534529643e+02 5.6534529643e+02 0.0000000000e+00 0.0000e+00 -1.0000e+00
  5000001  2    1    2    0    0 +1.8539051400e+01 +5.7218392014e+01 -5.7535156917e+01 9.9834951771e+02 9.9487377311e+02 0.0000e+00 0.0000e+00
  5000521  1    3    3    0    0 -8.7714590105e-01 +4.2817575145e+02 -3.2739920327e+02 5.3909691320e+02 1.0000000000e+01 0.0000e+00 -1.0000e+00
 -5000521  1    3    3    0    0 +1.9416197301e+01 -3.7095735943e+02 +2.6986404636e+02 4.5925260451e+02 1.0000000000e+01 0.0000e+00 1.0000e+00
       21  1    1    2  502  501 -1.8539051400e+01 -5.7218392014e+01 -1.3222781285e+01 6.1583136948e+01 0.0000000000e+00 0.0000e+00 -1.0000e+00
<mgrwt>
<rscale>  1 0.99669026E+03</rscale>
<asrwt>0</asrwt>
<pdfrwt beam="1">  1        4 0.86976199E-01 0.99669026E+03</pdfrwt>
<pdfrwt beam="2">  1       -4 0.76090363E-01 0.99669026E+03</pdfrwt>
<totfact> 0.35224572E+00</totfact>
</mgrwt>
</event>
<event>
 6      1 +3.0741590e+01 9.97467800e+02 7.81860800e-03 9.31132600e-02
        1 -1    0    0  502    0 +0.0000000000e+00 +0.0000000000e+00 +4.1771250269e+03 4.1771250269e+03 0.0000000000e+00 0.0000e+00 1.0000e+00
       -1 -1    0    0    0  501 -0.0000000000e+00 -0.0000000000e+00 -1.6484588425e+02 1.6484588425e+02 0.0000000000e+00 0.0000e+00 -1.0000e+00
  5000001  2    1    2    0    0 +4.9810381819e+01 +4.3759754852e+01 +1.3482487699e+03 1.6771156023e+03 9.9526177842e+02 0.0000e+00 0.0000e+00
  5000521  1    3    3    0    0 +2.6248724187e+02 +4.1689684928e+02 +1.0321824018e+03 1.1437670417e+03 1.0000000000e+01 0.0000e+00 -1.0000e+00
 -5000521  1    3    3    0    0 -2.1267686005e+02 -3.7313709443e+02 +3.1606636812e+02 5.3334856060e+02 1.0000000000e+01 0.0000e+00 1.0000e+00
       21  1    1    2  502  501 -4.9810381819e+01 -4.3759754852e+01 +2.6640303727e+03 2.6648553088e+03 0.0000000000e+00 0.0000e+00 1.0000e+00
<mgrwt>
<rscale>  1 0.99746779E+03</rscale>
<asrwt>0</asrwt>
<pdfrwt beam="1">  1        1 0.64263454E+00 0.99746779E+03</pdfrwt>
<pdfrwt beam="2">  1       -1 0.25360908E-01 0.99746779E+03</pdfrwt>
<totfact> 0.96005014E-01</totfact>
</mgrwt>
</event>
<event>
 6      1 +3.0741590e+01 1.00418700e+03 7.81860800e-03 9.30396400e-02
        2 -1    0    0  502    0 +0.0000000000e+00 +0.0000000000e+00 +8.9497133937e+02 8.9497133937e+02 0.0000000000e+00 0.0000e+00 -1.0000e+00
       -2 -1    0    0    0  501 -0.0000000000e+00 -0.0000000000e+00 -4.6122863871e+02 4.6122863871e+02 0.0000000000e+00 0.0000e+00 1.0000e+00
  5000001  2    1    2    0    0 +2.0391321069e+01 +4.4278931203e+00 +8.6034388183e+01 1.0078661112e+03 1.0039705026e+03 0.0000e+00 0.0000e+00
  5000521  1    3    3    0    0 -2.0549199516e+02 -6.3713660466e+01 +4.9263828145e+02 5.3766054993e+02 1.0000000000e+01 0.0000e+00 -1.0000e+00
 -5000521  1    3    3    0    0 +2.2588331623e+02 +6.8141553586e+01 -4.0660389326e+02 4.7020556132e+02 1.0000000000e+01 0.0000e+00 1.0000e+00
       21  1    1    2  502  501 -2.0391321069e+01 -4.4278931203e+00 +3.4770831248e+02 3.4833386683e+02 0.0000000000e+00 0.0000e+00 -1.0000e+00
<mgrwt>
<rscale>  1 0.10041873E+04</rscale>
<asrwt>0</asrwt>
<pdfrwt beam="1">  1        2 0.13768790E+00 0.10041873E+04</pdfrwt>
<pdfrwt beam="2">  1       -2 0.70958252E-01 0.10041873E+04</pdfrwt>
<totfact> 0.53134303E+01</totfact>
</mgrwt>
</event>
<event>
 6      1 +3.0741590e+01 9.98166500e+02 7.81860800e-03 9.31055800e-02
        1 -1    0    0  502    0 -0.0000000000e+00 +0.0000000000e+00 +2.0330792707e+03 2.0330792707e+03 0.0000000000e+00 0.0000e+00 -1.0000e+00
       21 -1    0    0  501  502 +0.0000000000e+00 -0.0000000000e+00 -2.3130959092e+02 2.3130959092e+02 0.0000000000e+00 0.0000e+00 -1.0000e+00
  5000001  2    1    2    0    0 +5.0485739890e+01 -5.9734609794e+00 +1.9042447769e+03 2.1499963895e+03 9.9687101087e+02 0.0000e+00 0.0000e+00
  5000521  1    3    3    0    0 +5.0943112549e+01 -2.9794747693e+02 +1.8213903583e+03 1.8463289894e+03 1.0000000000e+01 0.0000e+00 -1.0000e+00
 -5000521  1    3    3    0    0 -4.5737265974e-01 +2.9197401595e+02 +8.2854418534e+01 3.0366740005e+02 1.0000000000e+01 0.0000e+00 1.0000e+00
        1  1    1    2  501    0 -5.0485739890e+01 +5.9734609794e+00 -1.0247509707e+02 1.1439247217e+02 0.0000000000e+00 0.0000e+00 -1.0000e+00
<mgrwt>
<rscale>  1 0.99816647E+03</rscale>
<asrwt>0</asrwt>
<pdfrwt beam="1">  1       21 0.35586092E-01 0.99816647E+03</pdfrwt>
<pdfrwt beam="2">  1        1 0.31278141E+00 0.99816647E+03</pdfrwt>
<totfact> 0.21735570E+02</totfact>
</mgrwt>
</event>
<event>
 6      1 +3.0741590e+01 9.46213200e+02 7.81860800e-03 9.36958800e-02
        1 -1    0    0  502    0 +0.0000000000e+00 +0.0000000000e+00 +2.1554423508e+03 2.1554423508e+03 0.0000000000e+00 0.0000e+00 -1.0000e+00
       -1 -1    0    0    0  501 -0.0000000000e+00 -0.0000000000e+00 -2.4748219721e+02 2.4748219721e+02 0.0000000000e+00 0.0000e+00 1.0000e+00
  5000001  2    1    2    0    0 -2.4814022748e+00 -3.9293837491e+01 +2.0487675475e+03 2.2567161857e+03 9.4539373608e+02 0.0000e+00 0.0000e+00
  5000521  1    3    3    0    0 -1.4536638217e+02 +2.7153892547e+02 +1.8180090906e+03 1.8439419261e+03 1.0000000000e+01 0.0000e+00 -1.0000e+00
 -5000521  1    3    3    0    0 +1.4288497989e+02 -3.1083276296e+02 +2.3075845684e+02 4.1277425963e+02 1.0000000000e+01 0.0000e+00 1.0000e+00
       21  1    1    2  502  501 +2.4814022748e+00 +3.9293837491e+01 -1.4080739391e+02 1.4620836228e+02 0.0000000000e+00 0.0000e+00 -1.0000e+00
<mgrwt>
<rscale>  1 0.94621323E+03</rscale>
<asrwt>0</asrwt>
<pdfrwt beam="1">  1        1 0.33160650E+00 0.94621323E+03</pdfrwt>
<pdfrwt beam="2">  1       -1 0.38074186E-01 0.94621323E+03</pdfrwt>
<totfact> 0.15856183E+01</totfact>
</mgrwt>
</event>
<event>
 6      1 +3.0741590e+01 1.00101400e+03 7.81860800e-03 9.30743400e-02
        1 -1    0    0  502    0 +0.0000000000e+00 +0.0000000000e+00 +1.3784050075e+03 1.3784050075e+03 0.0000000000e+00 0.0000e+00 -1.0000e+00
       -1 -1    0    0    0  501 -0.0000000000e+00 -0.0000000000e+00 -2.0836487301e+02 2.0836487301e+02 0.0000000000e+00 0.0000e+00 1.0000e+00
  5000001  2    1    2    0    0 +3.7091244900e+01 -4.7743975349e+01 +1.1462113339e+03 1.5217848102e+03 9.9918633839e+02 0.0000e+00 0.0000e+00
  5000521  1    3    3    0    0 +4.4713342584e+02 +1.5578594005e+02 +3.0288617419e+02 5.6217221039e+02 1.0000000000e+01 0.0000e+00 1.0000e+00
 -5000521  1    3    3    0    0 -4.1004218094e+02 -2.0352991540e+02 +8.4332515971e+02 9.5961259976e+02 1.0000000000e+01 0.0000e+00 -1.0000e+00
       21  1    1    2  502  501 -3.7091244900e+01 +4.7743975349e+01 +2.3828800571e+01 6.4985070339e+01 0.0000000000e+00 0.0000e+00 1.0000e+00
<mgrwt>
<rscale>  1 0.10010138E+04</rscale>
<asrwt>0</asrwt>
<pdfrwt beam="1">  1        1 0.21206230E+00 0.10010138E+04</pdfrwt>
<pdfrwt beam="2">  1       -1 0.32056135E-01 0.10010138E+04</pdfrwt>
<totfact> 0.72409660E+01</totfact>
</mgrwt>
</event>
<event>
 6      1 +3.0741590e+01 1.00646500e+03 7.81860800e-03 9.30148300e-02
        2 -1    0    0  502    0 +0.0000000000e+00 +0.0000000000e+00 +3.7548715793e+02 3.7548715793e+02 0.0000000000e+00 0.0000e+00 -1.0000e+00
       -2 -1    0    0    0  501 -0.0000000000e+00 -0.0000000000e+00 -7.5280556184e+02 7.5280556184e+02 0.0000000000e+00 0.0000e+00 1.0000e+00
  5000001  2    1    2    0    0 +4.1579276072e+01 -2.8582492022e+01 -3.3017246823e+02 1.0592381450e+03 1.0051993802e+03 0.0000e+00 0.0000e+00
  5000521  1    3    3    0    0 +1.1254599521e+02 +3.2377714070e+02 -5.4239368281e+02 6.4170799047e+02 1.0000000000e+01 0.0000e+00 1.0000e+00
 -5000521  1    3    3    0    0 -7.0966719137e+01 -3.5235963273e+02 +2.1222121459e+02 4.1753015450e+02 1.0000000000e+01 0.0000e+00 -1.0000e+00
       21  1    1    2  502  501 -4.1579276072e+01 +2.8582492022e+01 -4.7145935683e+01 6.9054574796e+01 0.0000000000e+00 0.0000e+00 -1.0000e+00
<mgrwt>
<rscale>  1 0.10064649E+04</rscale>
<asrwt>0</asrwt>
<pdfrwt beam="1">  1        2 0.57767255E-01 0.10064649E+04</pdfrwt>
<pdfrwt beam="2">  1       -2 0.11581624E+00 0.10064649E+04</pdfrwt>
<totfact> 0.49354326E+01</totfact>
</mgrwt>
</event>
<event>
 6      1 +3.0741590e+01 9.99536200e+02 7.81860800e-03 9.30905400e-02
       -2 -1    0    0    0  501 -0.0000000000e+00 +0.0000000000e+00 +3.4211777835e+02 3.4211777835e+02 0.0000000000e+00 0.0000e+00 1.0000e+00
        2 -1    0    0  502    0 +0.0000000000e+00 -0.0000000000e+00 -1.1562632379e+03 1.1562632379e+03 0.0000000000e+00 0.0000e+00 -1.0000e+00
  5000001  2    1    2    0    0 +3.6282150177e+01 +1.0584664207e+01 -3.9058855363e+02 1.0731412226e+03 9.9882142343e+02 0.0000e+00 0.0000e+00
  5000521  1    3    3    0    0 -8.0097331548e+01 -2.6826904494e+02 -6.2870623383e+02 6.8829891141e+02 1.0000000000e+01 0.0000e+00 -1.0000e+00
 -5000521  1    3    3    0    0 +1.1637948173e+02 +2.7885370914e+02 +2.3811768020e+02 3.8484231121e+02 1.0000000000e+01 0.0000e+00 1.0000e+00
       21  1    1    2  502  501 -3.6282150177e+01 -1.0584664207e+01 -4.2355690589e+02 4.2523979361e+02 0.0000000000e+00 0.0000e+00 -1.0000e+00
<mgrwt>
<rscale>  1 0.99953623E+03</rscale>
<asrwt>0</asrwt>
<pdfrwt beam="1">  1        2 0.17788665E+00 0.99953623E+03</pdfrwt>
<pdfrwt beam="2">  1       -2 0.52633504E-01 0.99953623E+03</pdfrwt>
<totfact> 0.68371918E+01</totfact>
</mgrwt>
</event>
<event>
 6      1 +3.0741590e+01 1.00239300e+03 7.81860800e-03 9.30592400e-02
        2 -1    0    0  502    0 +0.0000000000e+00 +0.0000000000e+00 +7.5132842936e+02 7.5132842936e+02 0.0000000000e+00 0.0000e+00 -1.0000e+00
       -2 -1    0    0    0  501 -0.0000000000e+00 -0.0000000000e+00 -3.7279695941e+02 3.7279695941e+02 0.0000000000e+00 0.0000e+00 1.0000e+00
  5000001  2    1    2    0    0 +5.0142045404e+00 +2.8465409628e+01 +4.0855044866e+02 1.0824533253e+03 1.0019762026e+03 0.0000e+00 0.0000e+00
  5000521  1    3    3    0    0 -3.9649012449e+01 +4.6956855275e+01 +7.4238363776e+02 7.4499023891e+02 1.0000000000e+01 0.0000e+00 -1.0000e+00
 -5000521  1    3    3    0    0 +4.4663216990e+01 -1.8491445648e+01 -3.3383318911e+02 3.3746308637e+02 1.0000000000e+01 0.0000e+00 1.0000e+00
       21  1    1    2  502  501 -5.0142045404e+00 -2.8465409628e+01 -3.0018978713e+01 4.1672063489e+01 0.0000000000e+00 0.0000e+00 -1.0000e+00
<mgrwt>
<rscale>  1 0.10023930E+04</rscale>
<asrwt>0</asrwt>
<pdfrwt beam="1">  1        2 0.11558899E+00 0.10023930E+04</pdfrwt>
<pdfrwt beam="2">  1       -2 0.57353379E-01 0.10023930E+04</pdfrwt>
<totfact> 0.10636823E+02</totfact>
</mgrwt>
</event>
<event>
 6      1 +3.0741590e+01 1.70821700e+03 7.81860800e-03 8.75669200e-02
       21 -1    0    0  501  502 +0.0000000000e+00 +0.0000000000e+00 +8.8666044182e+02 8.8666044182e+02 0.0000000000e+00 0.0000e+00 1.0000e+00
        2 -1    0    0  502    0 -0.0000000000e+00 -0.0000000000e+00 -8.2275160012e+02 8.2275160012e+02 0.0000000000e+00 0.0000e+00 1.0000e+00
  5000001  2    1    2    0    0 +2.4378079406e+01 -4.8106634602e+02 -2.0195951741e+02 1.1592256150e+03 1.0348899747e+03 0.0000e+00 0.0000e+00
  5000521  1    3    3    0    0 +4.9115429242e+02 -8.4836238499e+01 -2.2385316833e+02 5.4647961288e+02 1.0000000000e+01 0.0000e+00 1.0000e+00
 -5000521  1    3    3    0    0 -4.6677621301e+02 -3.9623010752e+02 +2.1893650927e+01 6.1274600210e+02 1.0000000000e+01 0.0000e+00 -1.0000e+00
        2  1    1    2  501    0 -2.4378079406e+01 +4.8106634602e+02 +2.6586835911e+02 5.5018642695e+02 0.0000000000e+00 0.0000e+00 1.0000e+00
<mgrwt>
<rscale>  1 0.17082170E+04</rscale>
<asrwt>0</asrwt>
<pdfrwt beam="1">  1       21 0.13640930E+00 0.17082170E+04</pdfrwt>
<pdfrwt beam="2">  1        2 0.12657717E+00 0.17082170E+04</pdfrwt>
<totfact> 0.11761478E+02</totfact>
</mgrwt>
</event>
<event>
 6      1 +3.0741590e+01 9.95240200e+02 7.81860800e-03 9.31378100e-02
       21 -1    0    0  501  502 +0.0000000000e+00 +0.0000000000e+00 +9.4950303898e+01 9.4950303898e+01 0.0000000000e+00 0.0000e+00 -1.0000e+00
        2 -1    0    0  502    0 -0.0000000000e+00 -0.0000000000e+00 -2.7802726119e+03 2.7802726119e+03 0.0000000000e+00 0.0000e+00 1.0000e+00
  5000001  2    1    2    0    0 +3.8780591493e+00 +2.6103116537e+01 -2.6527658138e+03 2.8333142371e+03 9.9489029107e+02 0.0000e+00 0.0000e+00
  5000521  1    3    3    0    0 -7.9428942821e+01 -3.1645929207e+02 -2.6726902020e+02 4.2188644166e+02 1.0000000000e+01 0.0000e+00 -1.0000e+00
 -5000521  1    3    3    0    0 +8.3307001970e+01 +3.4256240861e+02 -2.3854967936e+03 2.4114277954e+03 1.0000000000e+01 0.0000e+00 1.0000e+00
        2  1    1    2  501    0 -3.8780591493e+00 -2.6103116537e+01 -3.2556494222e+01 4.1908678716e+01 0.0000000000e+00 0.0000e+00 1.0000e+00
<mgrwt>
<rscale>  1 0.99524022E+03</rscale>
<asrwt>0</asrwt>
<pdfrwt beam="1">  1       21 0.14607740E-01 0.99524022E+03</pdfrwt>
<pdfrwt beam="2">  1        2 0.42773422E+00 0.99524022E+03</pdfrwt>
<totfact> 0.12030317E+03</totfact>
</mgrwt>
</event>
<event>
 6      1 +3.0741590e+01 9.37985700e+02 7.81860800e-03 9.37930500e-02
       -1 -1    0    0    0  501 -0.0000000000e+00 +0.0000000000e+00 +5.9911152549e+02 5.9911152549e+02 0.0000000000e+00 0.0000e+00 1.0000e+00
        1 -1    0    0  502    0 +0.0000000000e+00 -0.0000000000e+00 -5.1043625789e+02 5.1043625789e+02 0.0000000000e+00 0.0000e+00 -1.0000e+00
  5000001  2    1    2    0    0 +8.1730276184e+00 +2.9067945842e+01 -7.7002347690e+01 9.4114108498e+02 9.3749956610e+02 0.0000e+00 0.0000e+00
  5000521  1    3    3    0    0 -1.0805430094e+02 +4.5917393540e+02 -1.3739940677e+02 4.9142144020e+02 1.0000000000e+01 0.0000e+00 1.0000e+00
 -5000521  1    3    3    0    0 +1.1622732856e+02 -4.3010598956e+02 +6.0397059075e+01 4.4971964478e+02 1.0000000000e+01 0.0000e+00 -1.0000e+00
       21  1    1    2  502  501 -8.1730276184e+00 -2.9067945842e+01 +1.6567761529e+02 1.6840669840e+02 0.0000000000e+00 0.0000e+00 -1.0000e+00
<mgrwt>
<rscale>  1 0.93798570E+03</rscale>
<asrwt>0</asrwt>
<pdfrwt beam="1">  1        1 0.78528655E-01 0.93798570E+03</pdfrwt>
<pdfrwt beam="2">  1       -1 0.92171004E-01 0.93798570E+03</pdfrwt>
<totfact> 0.49695657E+01</totfact>
</mgrwt>
</event>
<event>
 6      1 +3.0741590e+01 9.94902500e+02 7.81860800e-03 9.31415300e-02
        1 -1    0    0  502    0 +0.0000000000e+00 +0.0000000000e+00 +2.6745045532e+03 2.6745045532e+03 0.0000000000e+00 0.0000e+00 1.0000e+00
       -1 -1    0    0    0  501 -0.0000000000e+00 -0.0000000000e+00 -9.9680828979e+01 9.9680828979e+01 0.0000000000e+00 0.0000e+00 -1.0000e+00
  5000001  2    1    2    0    0 -3.3218904519e+01 +1.3490766701e+01 +2.4496304956e+03 2.6439592677e+03 9.9425627873e+02 0.0000e+00 0.0000e+00
  5000521  1    3    3    0    0 -5.6174033306e+01 -4.8560705866e+02 +1.0639340271e+03 1.1709079176e+03 1.0000000000e+01 0.0000e+00 -1.0000e+00
 -5000521  1    3    3    0    0 +2.2955128787e+01 +4.9909782536e+02 +1.3856964684e+03 1.4730513500e+03 1.0000000000e+01 0.0000e+00 1.0000e+00
       21  1    1    2  502  501 +3.3218904519e+01 -1.3490766701e+01 +1.2519322864e+02 1.3022611451e+02 0.0000000000e+00 0.0000e+00 -1.0000e+00
<mgrwt>
<rscale>  1 0.99490253E+03</rscale>
<asrwt>0</asrwt>
<pdfrwt beam="1">  1        1 0.41146219E+00 0.99490253E+03</pdfrwt>
<pdfrwt beam="2">  1       -1 0.15335514E-01 0.99490253E+03</pdfrwt>
<totfact> 0.33078835E+01</totfact>
</mgrwt>
</event>
<event>
 6      1 +3.0741590e+01 9.44298300e+02 7.81860800e-03 9.37184000e-02
        2 -1    0    0  502    0 +0.0000000000e+00 +0.0000000000e+00 +1.2062521952e+03 1.2062521952e+03 0.0000000000e+00 0.0000e+00 1.0000e+00
       -2 -1    0    0    0  501 -0.0000000000e+00 -0.0000000000e+00 -4.2098055969e+02 4.2098055969e+02 0.0000000000e+00 0.0000e+00 -1.0000e+00
  5000001  2    1    2    0    0 +3.5480143773e+01 -1.9305134888e+01 +1.0194501091e+03 1.3895962966e+03 9.4343405372e+02 0.0000e+00 0.0000e+00
  5000521  1    3    3    0    0 -1.6317721076e+02 +3.8738745828e+02 +2.2928368364e+02 4.7892259555e+02 1.0000000000e+01 0.0000e+00 -1.0000e+00
 -5000521  1    3    3    0    0 +1.9865735453e+02 -4.0669259317e+02 +7.9016642548e+02 9.1067370106e+02 1.0000000000e+01 0.0000e+00 1.0000e+00
       21  1    1    2  502  501 -3.5480143773e+01 +1.9305134888e+01 -2.3417847357e+02 2.3763645831e+02 0.0000000000e+00 0.0000e+00 1.0000e+00
<mgrwt>
<rscale>  1 0.94429833E+03</rscale>
<asrwt>0</asrwt>
<pdfrwt beam="1">  1        2 0.18557726E+00 0.94429833E+03</pdfrwt>
<pdfrwt beam="2">  1       -2 0.64766240E-01 0.94429833E+03</pdfrwt>
<totfact> 0.41363209E+01</totfact>
</mgrwt>
</event>
<event>
 6      1 +3.0741590e+01 1.00053900e+03 7.81860800e-03 9.30795400e-02
        4 -1    0    0  502    0 -0.0000000000e+00 +0.0000000000e+00 +9.4705522915e+02 9.4705522915e+02 0.0000000000e+00 0.0000e+00 -1.0000e+00
       21 -1    0    0  501  502 +0.0000000000e+00 -0.0000000000e+00 -5.2738531820e+02 5.2738531820e+02 0.0000000000e+00 0.0000e+00 -1.0000e+00
  5000001  2    1    2    0    0 +1.5134693825e+01 -1.6372821083e+01 +6.8219010604e+02 1.2109752155e+03 1.0002902097e+03 0.0000e+00 0.0000e+00
  5000521  1    3    3    0    0 -3.1940801650e+01 +4.7179075215e+02 +1.7215132415e+02 5.0333170676e+02 1.0000000000e+01 0.0000e+00 1.0000e+00
 -5000521  1    3    3    0    0 +4.7075495475e+01 -4.8816357323e+02 +5.1003878189e+02 7.0764350879e+02 1.0000000000e+01 0.0000e+00 -1.0000e+00
        4  1    1    2  501    0 -1.5134693825e+01 +1.6372821083e+01 -2.6252019509e+02 2.6346533179e+02 0.0000000000e+00 0.0000e+00 -1.0000e+00
<mgrwt>
<rscale>  1 0.10005387E+04</rscale>
<asrwt>0</asrwt>
<pdfrwt beam="1">  1       21 0.81136203E-01 0.10005387E+04</pdfrwt>
<pdfrwt beam="2">  1        4 0.14570080E+00 0.10005387E+04</pdfrwt>
<totfact> 0.16287529E+01</totfact>
</mgrwt>
</event>
<event>
 6      1 +3.0741590e+01 9.97265800e+02 7.81860800e-03 9.31154900e-02
       -2 -1    0    0    0  501 -0.0000000000e+00 +0.0000000000e+00 +3.2367410619e+02 3.2367410619e+02 0.0000000000e+00 0.0000e+00 1.0000e+00
        2 -1    0    0  502    0 +0.0000000000e+00 -0.0000000000e+00 -8.5220599655e+02 8.5220599655e+02 0.0000000000e+00 0.0000e+00 -1.0000e+00
  5000001  2    1    2    0    0 +2.0273661737e+01 +3.6292031979e+01 -4.6594931089e+02 1.1007488030e+03 9.9639903356e+02 0.0000e+00 0.0000e+00
  5000521  1    3    3    0    0 -1.1657649192e+02 +4.9394010460e+02 -1.5519623803e+02 5.3080389759e+02 1.0000000000e+01 0.0000e+00 1.0000e+00
 -5000521  1    3    3    0    0 +1.3685015365e+02 -4.5764807262e+02 -3.1075307286e+02 5.6994490542e+02 1.0000000000e+01 0.0000e+00 -1.0000e+00
       21  1    1    2  502  501 -2.0273661737e+01 -3.6292031979e+01 -6.2582579473e+01 7.5131299728e+01 0.0000000000e+00 0.0000e+00 1.0000e+00
<mgrwt>
<rscale>  1 0.99726585E+03</rscale>
<asrwt>0</asrwt>
<pdfrwt beam="1">  1        2 0.13110861E+00 0.99726585E+03</pdfrwt>
<pdfrwt beam="2">  1       -2 0.49796017E-01 0.99726585E+03</pdfrwt>
<totfact> 0.12045821E+02</totfact>
</mgrwt>
</event>
<event>
 5      1 +3.0741590e+01 6.39950000e+02 7.81860800e-03 9.82582200e-02
        2 -1    0    0  502    0 +0.0000000000e+00 +0.0000000000e+00 +9.9588941563e+02 9.9588941563e+02 0.0000000000e+00 0.0000e+00 1.0000e+00
       -2 -1    0    0    0  501 -0.0000000000e+00 -0.0000000000e+00 -1.5694242500e+02 1.5694242500e+02 0.0000000000e+00 0.0000e+00 -1.0000e+00
  5000521  1    1    2    0    0 +1.2222374207e+02 -7.9727026888e+01 -1.1426733680e+02 1.8561267791e+02 1.0000000000e+01 0.0000e+00 -1.0000e+00
 -5000521  1    1    2    0    0 -1.1091621184e+02 +3.6193221997e+01 +6.1748566150e+02 6.2849096853e+02 1.0000000000e+01 0.0000e+00 1.0000e+00
       21  1    1    2  502  501 -1.1307530230e+01 +4.3533804891e+01 +3.3572866593e+02 3.3872819419e+02 0.0000000000e+00 0.0000e+00 -1.0000e+00
<mgrwt>
<rscale>  1 0.63995005E+03</rscale>
<asrwt>0</asrwt>
<pdfrwt beam="1">  1        2 0.15321375E+00 0.63995005E+03</pdfrwt>
<pdfrwt beam="2">  1       -2 0.24144989E-01 0.63995005E+03</pdfrwt>
<totfact> 0.39148260E+02</totfact>
</mgrwt>
</event>
<event>
 6      1 +3.0741590e+01 9.96679900e+02 7.81860800e-03 9.31219400e-02
        2 -1    0    0  502    0 +0.0000000000e+00 +0.0000000000e+00 +9.3552270186e+02 9.3552270186e+02 0.0000000000e+00 0.0000e+00 1.0000e+00
       -2 -1    0    0    0  501 -0.0000000000e+00 -0.0000000000e+00 -2.9724900166e+02 2.9724900166e+02 0.0000000000e+00 0.0000e+00 -1.0000e+00
  5000001  2    1    2    0    0 -3.7547006090e+01 -7.8436863343e+00 +5.5428755520e+02 1.1404409197e+03 9.9594151259e+02 0.0000e+00 0.0000e+00
  5000521  1    3    3    0    0 +8.9736438994e+01 -2.3723919819e+02 +7.6359630198e+02 8.0468278101e+02 1.0000000000e+01 0.0000e+00 1.0000e+00
 -5000521  1    3    3    0    0 -1.2728344508e+02 +2.2939551186e+02 -2.0930874678e+02 3.3575813874e+02 1.0000000000e+01 0.0000e+00 -1.0000e+00
       21  1    1    2  502  501 +3.7547006090e+01 +7.8436863343e+00 +8.3986144996e+01 9.2330783778e+01 0.0000000000e+00 0.0000e+00 1.0000e+00
<mgrwt>
<rscale>  1 0.99667989E+03</rscale>
<asrwt>0</asrwt>
<pdfrwt beam="1">  1        2 0.14392657E+00 0.99667989E+03</pdfrwt>
<pdfrwt beam="2">  1       -2 0.45730616E-01 0.99667989E+03</pdfrwt>
<totfact> 0.12558670E+02</totfact>
</mgrwt>
</event>
<event>
 6      1 +3.0741590e+01 1.00096400e+03 7.81860800e-03 9.30748800e-02
       -1 -1    0    0    0  501 -0.0000000000e+00 +0.0000000000e+00 +9.6947185556e+02 9.6947185556e+02 0.0000000000e+00 0.0000e+00 1.0000e+00
        1 -1    0    0  502    0 +0.0000000000e+00 -0.0000000000e+00 -2.9343557991e+02 2.9343557991e+02 0.0000000000e+00 0.0000e+00 -1.0000e+00
  5000001  2    1    2    0    0 +6.4687603823e+01 +1.1718618591e+01 +6.3230335912e+02 1.1839493447e+03 9.9880263352e+02 0.0000e+00 0.0000e+00
  5000521  1    3    3    0    0 -3.1442873996e+02 +3.4866837929e+02 +1.7565922492e+02 5.0138930436e+02 1.0000000000e+01 0.0000e+00 1.0000e+00
 -5000521  1    3    3    0    0 +3.7911634378e+02 -3.3694976070e+02 +4.5664413420e+02 6.8256004033e+02 1.0000000000e+01 0.0000e+00 -1.0000e+00
       21  1    1    2  502  501 -6.4687603823e+01 -1.1718618591e+01 +4.3732916533e+01 7.8958090773e+01 0.0000000000e+00 0.0000e+00 -1.0000e+00
<mgrwt>
<rscale>  1 0.10009638E+04</rscale>
<asrwt>0</asrwt>
<pdfrwt beam="1">  1        1 0.45143936E-01 0.10009638E+04</pdfrwt>
<pdfrwt beam="2">  1       -1 0.14914951E+00 0.10009638E+04</pdfrwt>
<totfact> 0.32068994E+01</totfact>
</mgrwt>
</event>
<event>
 6      1 +3.0741590e+01 1.00239000e+03 7.81860800e-03 9.30592700e-02
        2 -1    0    0  502    0 -0.0000000000e+00 +0.0000000000e+00 +3.9260516262e+02 3.9260516262e+02 0.0000000000e+00 0.0000e+00 1.0000e+00
       21 -1    0    0  501  502 +0.0000000000e+00 -0.0000000000e+00 -8.8715023618e+02 8.8715023618e+02 0.0000000000e+00 0.0000e+00 -1.0000e+00
  5000001  2    1    2    0    0 -1.2352283153e+02 +9.2424073999e+00 -2.9501236407e+02 1.0449009457e+03 9.9470718269e+02 0.0000e+00 0.0000e+00
  5000521  1    3    3    0    0 -1.9224003603e+02 -1.0459205511e+01 -6.5240471809e+02 6.8029224795e+02 1.0000000000e+01 0.0000e+00 -1.0000e+00
 -5000521  1    3    3    0    0 +6.8717204499e+01 +1.9701612911e+01 +3.5739235402e+02 3.6460869772e+02 1.0000000000e+01 0.0000e+00 1.0000e+00
        2  1    1    2  501    0 +1.2352283153e+02 -9.2424073999e+00 -1.9953270948e+02 2.3485445313e+02 0.0000000000e+00 0.0000e+00 1.0000e+00
<mgrwt>
<rscale>  1 0.10023900E+04</rscale>
<asrwt>0</asrwt>
<pdfrwt beam="1">  1       21 0.13648465E+00 0.10023900E+04</pdfrwt>
<pdfrwt beam="2">  1        2 0.60400794E-01 0.10023900E+04</pdfrwt>
<totfact> 0.31230398E+02</totfact>
</mgrwt>
</event>
<event>
 6      1 +3.0741590e+01 1.01032400e+03 7.81860800e-03 9.29729300e-02
       -2 -1    0    0    0  501 -0.0000000000e+00 +0.0000000000e+00 +1.8224036186e+02 1.8224036186e+02 0.0000000000e+00 0.0000e+00 1.0000e+00
        2 -1    0    0  502    0 +0.0000000000e+00 -0.0000000000e+00 -1.7167596681e+03 1.7167596681e+03 0.0000000000e+00 0.0000e+00 -1.0000e+00
  5000001  2    1    2    0    0 +3.2372347373e+01 +1.6695410584e+00 -1.2254365533e+03 1.5882221279e+03 1.0098039538e+03 0.0000e+00 0.0000e+00
  5000521  1    3    3    0    0 -1.1490010891e+01 -3.9793716850e+02 -1.0954746841e+03 1.1656117681e+03 1.0000000000e+01 0.0000e+00 -1.0000e+00
 -5000521  1    3    3    0    0 +4.3862358265e+01 +3.9960670956e+02 -1.2996186924e+02 4.2261035985e+02 1.0000000000e+01 0.0000e+00 1.0000e+00
       21  1    1    2  502  501 -3.2372347373e+01 -1.6695410584e+00 -3.0908275295e+02 3.1077790207e+02 0.0000000000e+00 0.0000e+00 -1.0000e+00
<mgrwt>
<rscale>  1 0.10103241E+04</rscale>
<asrwt>0</asrwt>
<pdfrwt beam="1">  1        2 0.26411689E+00 0.10103241E+04</pdfrwt>
<pdfrwt beam="2">  1       -2 0.28036977E-01 0.10103241E+04</pdfrwt>
<totfact> 0.11149581E+02</totfact>
</mgrwt>
</event>
<event>
 6      1 +3.0741590e+01 9.73141700e+02 7.81860800e-03 9.33850300e-02
       -2 -1    0    0    0  501 -0.0000000000e+00 +0.0000000000e+00 +1.1112366928e+02 1.1112366928e+02 0.0000000000e+00 0.0000e+00 1.0000e+00
        2 -1    0    0  502    0 +0.0000000000e+00 -0.0000000000e+00 -2.4521322883e+03 2.4521322883e+03 0.0000000000e+00 0.0000e+00 -1.0000e+00
  5000001  2    1    2    0    0 -6.8436617336e+01 -1.8308185935e+01 -2.1866865670e+03 2.3934500213e+03 9.7055968482e+02 0.0000e+00 0.0000e+00
  5000521  1    3    3    0    0 +3.0541527754e+02 -3.4614901324e+02 -1.2565535545e+03 1.3387025310e+03 1.0000000000e+01 0.0000e+00 -1.0000e+00
 -5000521  1    3    3    0    0 -3.7385189487e+02 +3.2784082731e+02 -9.3013301246e+02 1.0547474903e+03 1.0000000000e+01 0.0000e+00 1.0000e+00
       21  1    1    2  502  501 +6.8436617336e+01 +1.8308185935e+01 -1.5432205201e+02 1.6980593629e+02 0.0000000000e+00 0.0000e+00 1.0000e+00
<mgrwt>
<rscale>  1 0.97314175E+03</rscale>
<asrwt>0</asrwt>
<pdfrwt beam="1">  1        2 0.37725111E+00 0.97314175E+03</pdfrwt>
<pdfrwt beam="2">  1       -2 0.17095950E-01 0.97314175E+03</pdfrwt>
<totfact> 0.10543727E+02</totfact>
</mgrwt>
</event>
<event>
 6      1 +3.0741590e+01 9.68700000e+02 7.81860800e-03 9.34355600e-02
       -2 -1    0    0    0  501 -0.0000000000e+00 +0.0000000000e+00 +2.1933177485e+02 2.1933177485e+02 0.0000000000e+00 0.0000e+00 -1.0000e+00
        2 -1    0    0  502    0 +0.0000000000e+00 -0.0000000000e+00 -1.1868055150e+03 1.1868055150e+03 0.0000000000e+00 0.0000e+00 1.0000e+00
  5000001  2    1    2    0    0 -2.4928853929e+01 +3.3682668429e+01 -8.7821906284e+02 1.3075352243e+03 9.6779319616e+02 0.0000e+00 0.0000e+00
  5000521  1    3    3    0    0 -2.1950565724e+02 +1.6157304114e+02 -1.0056048071e+03 1.0419355111e+03 1.0000000000e+01 0.0000e+00 1.0000e+00
 -5000521  1    3    3    0    0 +1.9457680331e+02 -1.2789037271e+02 +1.2738574426e+02 2.6559971322e+02 1.0000000000e+01 0.0000e+00 -1.0000e+00
       21  1    1    2  502  501 +2.4928853929e+01 -3.3682668429e+01 -8.9254677295e+01 9.8602065545e+01 0.0000000000e+00 0.0000e+00 1.0000e+00
<mgrwt>
<rscale>  1 0.96869997E+03</rscale>
<asrwt>0</asrwt>
<pdfrwt beam="1">  1        2 0.18258546E+00 0.96869997E+03</pdfrwt>
<pdfrwt beam="2">  1       -2 0.33743351E-01 0.96869997E+03</pdfrwt>
<totfact> 0.15826711E+02</totfact>
</mgrwt>
</event>
<event>
 6      1 +3.0741590e+01 1.01390600e+03 7.81860800e-03 9.29342300e-02
       -2 -1    0    0    0  501 -0.0000000000e+00 +0.0000000000e+00 +3.1498005861e+02 3.1498005861e+02 0.0000000000e+00 0.0000e+00 1.0000e+00
        2 -1    0    0  502    0 +0.0000000000e+00 -0.0000000000e+00 -8.6630177282e+02 8.6630177282e+02 0.0000000000e+00 0.0000e+00 -1.0000e+00
  5000001  2    1    2    0    0 -2.1240533945e+01 +2.1490331502e+00 -5.1040326756e+02 1.1351288478e+03 1.0136815214e+03 0.0000e+00 0.0000e+00
  5000521  1    3    3    0    0 -1.5023665794e+02 -3.4414142847e+02 +1.2848037557e+02 3.9700325324e+02 1.0000000000e+01 0.0000e+00 1.0000e+00
 -5000521  1    3    3    0    0 +1.2899612400e+02 +3.4629046162e+02 -6.3888364313e+02 7.3812559452e+02 1.0000000000e+01 0.0000e+00 -1.0000e+00
       21  1    1    2  502  501 +2.1240533945e+01 -2.1490331502e+00 -4.0918446650e+01 4.6152983674e+01 0.0000000000e+00 0.0000e+00 -1.0000e+00
<mgrwt>
<rscale>  1 0.10139063E+04</rscale>
<asrwt>0</asrwt>
<pdfrwt beam="1">  1        2 0.13327719E+00 0.10139063E+04</pdfrwt>
<pdfrwt beam="2">  1       -2 0.48458471E-01 0.10139063E+04</pdfrwt>
<totfact> 0.12438180E+02</totfact>
</mgrwt>
</event>
<event>
 6      1 +3.0741590e+01 1.03624700e+03 7.81860800e-03 9.26965900e-02
       -2 -1    0    0    0  501 -0.0000000000e+00 +0.0000000000e+00 +6.2934332560e+02 6.2934332560e+02 0.0000000000e+00 0.0000e+00 1.0000e+00
        2 -1    0    0  502    0 +0.0000000000e+00 -0.0000000000e+00 -8.4271224203e+02 8.4271224203e+02 0.0000000000e+00 0.0000e+00 -1.0000e+00
  5000001  2    1    2    0    0 -2.6688454493e+02 -1.8314941985e+02 +7.4445255323e+01 1.0389180978e+03 9.8439709851e+02 0.0000e+00 0.0000e+00
  5000521  1    3    3    0    0 +4.2565383560e+01 +2.7083505496e+02 +3.3313820171e+02 4.3156054073e+02 1.0000000000e+01 0.0000e+00 1.0000e+00
 -5000521  1    3    3    0    0 -3.0944992849e+02 -4.5398447481e+02 -2.5869294639e+02 6.0735755706e+02 1.0000000000e+01 0.0000e+00 -1.0000e+00
       21  1    1    2  502  501 +2.6688454493e+02 +1.8314941985e+02 -2.8781417176e+02 4.3313746983e+02 0.0000000000e+00 0.0000e+00 -1.0000e+00
<mgrwt>
<rscale>  1 0.10362474E+04</rscale>
<asrwt>0</asrwt>
<pdfrwt beam="1">  1        2 0.12964804E+00 0.10362474E+04</pdfrwt>
<pdfrwt beam="2">  1       -2 0.96822051E-01 0.10362474E+04</pdfrwt>
<totfact> 0.28407706E+01</totfact>
</mgrwt>
</event>
<event>
 6      1 +3.0741590e+01 9.79389100e+02 7.81860800e-03 9.33144400e-02
       -2 -1    0    0    0  501 -0.0000000000e+00 +0.0000000000e+00 +6.9959811751e+02 6.9959811751e+02 0.0000000000e+00 0.0000e+00 1.0000e+00
        2 -1    0    0  502    0 +0.0000000000e+00 -0.0000000000e+00 -3.7107253160e+02 3.7107253160e+02 0.0000000000e+00 0.0000e+00 -1.0000e+00
  5000001  2    1    2    0    0 +3.3582244697e+01 -1.5960715085e+01 +3.2991211980e+02 1.0334626653e+03 9.7868307543e+02 0.0000e+00 0.0000e+00
  5000521  1    3    3    0    0 -3.4883998511e+00 -3.2400750985e+01 -3.5030741805e+02 3.5196202173e+02 1.0000000000e+01 0.0000e+00 -1.0000e+00
 -5000521  1    3    3    0    0 +3.7070644548e+01 +1.6440035901e+01 +6.8021953785e+02 6.8150064354e+02 1.0000000000e+01 0.0000e+00 1.0000e+00
       21  1    1    2  502  501 -3.3582244697e+01 +1.5960715085e+01 -1.3865338914e+00 3.7207983836e+01 0.0000000000e+00 0.0000e+00 1.0000e+00
<mgrwt>
<rscale>  1 0.97938913E+03</rscale>
<asrwt>0</asrwt>
<pdfrwt beam="1">  1        2 0.57088082E-01 0.97938913E+03</pdfrwt>
<pdfrwt beam="2">  1       -2 0.10763048E+00 0.97938913E+03</pdfrwt>
<totfact> 0.59880816E+01</totfact>
</mgrwt>
</event>
<event>
 6      1 +3.0741590e+01 9.74029200e+02 7.81860800e-03 9.33749700e-02
        1 -1    0    0  502    0 -0.0000000000e+00 +0.0000000000e+00 +2.1052855203e+03 2.1052855203e+03 0.0000000000e+00 0.0000e+00 1.0000e+00
       21 -1    0    0  501  502 +0.0000000000e+00 -0.0000000000e+00 -1.2532340557e+02 1.2532340557e+02 0.0000000000e+00 0.0000e+00 -1.0000e+00
  5000001  2    1    2    0    0 -1.1400967995e+01 +3.5138570259e+01 +1.9598464162e+03 2.1885453725e+03 9.7332839861e+02 0.0000e+00 0.0000e+00
  5000521  1    3    3    0    0 +6.0910150203e+01 +3.7323430376e+02 +1.7355453738e+03 1.7762971701e+03 1.0000000000e+01 0.0000e+00 1.0000e+00
 -5000521  1    3    3    0    0 -7.2311118198e+01 -3.3809573350e+02 +2.2430104234e+02 4.1224820245e+02 1.0000000000e+01 0.0000e+00 -1.0000e+00
        1  1    1    2  501    0 +1.1400967995e+01 -3.5138570259e+01 +2.0115698615e+01 4.2063553367e+01 0.0000000000e+00 0.0000e+00 1.0000e+00
<mgrwt>
<rscale>  1 0.97402920E+03</rscale>
<asrwt>0</asrwt>
<pdfrwt beam="1">  1       21 0.19280525E-01 0.97402920E+03</pdfrwt>
<pdfrwt beam="2">  1        1 0.32389005E+00 0.97402920E+03</pdfrwt>
<totfact> 0.65957859E+02</totfact>
</mgrwt>
</event>
<event>
 6      1 +3.0741590e+01 1.01321400e+03 7.81860800e-03 9.29416900e-02
        2 -1    0    0  502    0 -0.0000000000e+00 +0.0000000000e+00 +1.8161809822e+03 1.8161809822e+03 0.0000000000e+00 0.0000e+00 -1.0000e+00
       21 -1    0    0  501  502 +0.0000000000e+00 -0.0000000000e+00 -2.2815602179e+02 2.2815602179e+02 0.0000000000e+00 0.0000e+00 1.0000e+00
  5000001  2    1    2    0    0 -1.3953694758e+02 -1.1607574268e+02 +1.5607540218e+03 1.8607945243e+03 9.9682446154e+02 0.0000e+00 0.0000e+00
  5000521  1    3    3    0    0 +1.8515346895e+02 -7.3469463659e+00 -6.7069810231e+01 1.9731736905e+02 1.0000000000e+01 0.0000e+00 1.0000e+00
 -5000521  1    3    3    0    0 -3.2469041653e+02 -1.0872879631e+02 +1.6278238320e+03 1.6634771552e+03 1.0000000000e+01 0.0000e+00 -1.0000e+00
        2  1    1    2  501    0 +1.3953694758e+02 +1.1607574268e+02 +2.7270938620e+01 1.8354247975e+02 0.0000000000e+00 0.0000e+00 -1.0000e+00
<mgrwt>
<rscale>  1 0.10132143E+04</rscale>
<asrwt>0</asrwt>
<pdfrwt beam="1">  1       21 0.35100928E-01 0.10132143E+04</pdfrwt>
<pdfrwt beam="2">  1        2 0.27941245E+00 0.10132143E+04</pdfrwt>
<totfact> 0.75325598E+02</totfact>
</mgrwt>
</event>
<event>
 6      1 +3.0741590e+01 9.91148100e+02 7.81860800e-03 9.31830700e-02
       -2 -1    0    0    0  501 -0.0000000000e+00 +0.0000000000e+00 +3.3818637706e+02 3.3818637706e+02 0.0000000000e+00 0.0000e+00 -1.0000e+00
        2 -1    0    0  502    0 +0.0000000000e+00 -0.0000000000e+00 -8.8990002065e+02 8.8990002065e+02 0.0000000000e+00 0.0000e+00 1.0000e+00
  5000001  2    1    2    0    0 +2.7842647231e+01 -4.0760164412e+00 -6.0967976638e+02 1.1636511721e+03 9.9074860877e+02 0.0000e+00 0.0000e+00
  5000521  1    3    3    0    0 +3.8952898697e+02 +3.2046859864e+02 -3.3047918784e+02 6.0311644647e+02 1.0000000000e+01 0.0000e+00 1.0000e+00
 -5000521  1    3    3    0    0 -3.6168633974e+02 -3.2454461508e+02 -2.7920057854e+02 5.6053472559e+02 1.0000000000e+01 0.0000e+00 -1.0000e+00
       21  1    1    2  502  501 -2.7842647231e+01 +4.0760164412e+00 +5.7966122788e+01 6.4435225661e+01 0.0000000000e+00 0.0000e+00 -1.0000e+00
<mgrwt>
<rscale>  1 0.99114814E+03</rscale>
<asrwt>0</asrwt>
<pdfrwt beam="1">  1        2 0.13690769E+00 0.99114814E+03</pdfrwt>
<pdfrwt beam="2">  1       -2 0.52028675E-01 0.99114814E+03</pdfrwt>
<totfact> 0.10371479E+02</totfact>
</mgrwt>
</event>
<event>
 6      1 +3.0741590e+01 1.00815600e+03 7.81860800e-03 9.29964400e-02
        1 -1    0    0  502    0 +0.0000000000e+00 +0.0000000000e+00 +7.4835808373e+02 7.4835808373e+02 0.0000000000e+00 0.0000e+00 1.0000e+00
       -1 -1    0    0    0  501 -0.0000000000e+00 -0.0000000000e+00 -3.7450964329e+02 3.7450964329e+02 0.0000000000e+00 0.0000e+00 -1.0000e+00
  5000001  2    1    2    0    0 +1.2116517807e+01 -1.7114628757e+01 +3.0859720436e+02 1.0543298227e+03 1.0079382024e+03 0.0000e+00 0.0000e+00
  5000521  1    3    3    0    0 -3.8200961672e+02 +2.5574150377e+02 -3.9966835400e+01 4.6155434344e+02 1.0000000000e+01 0.0000e+00 -1.0000e+00
 -5000521  1    3    3    0    0 +3.9412613453e+02 -2.7285613252e+02 +3.4856403976e+02 5.9277547924e+02 1.0000000000e+01 0.0000e+00 1.0000e+00
       21  1    1    2  502  501 -1.2116517807e+01 +1.7114628757e+01 +6.5251236082e+01 6.8537904341e+01 0.0000000000e+00 0.0000e+00 -1.0000e+00
<mgrwt>
<rscale>  1 0.10081563E+04</rscale>
<asrwt>0</asrwt>
<pdfrwt beam="1">  1        1 0.11513201E+00 0.10081563E+04</pdfrwt>
<pdfrwt beam="2">  1       -1 0.57616868E-01 0.10081563E+04</pdfrwt>
<totfact> 0.75140509E+01</totfact>
</mgrwt>
</event>
<event>
 6      1 +3.0741590e+01 1.03017000e+03 7.81860800e-03 9.27606000e-02
       -1 -1    0    0    0  501 -0.0000000000e+00 +0.0000000000e+00 +3.9164366369e+02 3.9164366369e+02 0.0000000000e+00 0.0000e+00 -1.0000e+00
        1 -1    0    0  502    0 +0.0000000000e+00 -0.0000000000e+00 -1.8175221581e+03 1.8175221581e+03 0.0000000000e+00 0.0000e+00 1.0000e+00
  5000001  2    1    2    0    0 +8.7761129812e+01 -2.4651830453e+02 -3.2888550871e+02 1.0813950556e+03 9.9638160264e+02 0.0000e+00 0.0000e+00
  5000521  1    3    3    0    0 -9.7333663536e+01 -5.9450662439e+02 -3.3032236767e+02 6.8711340773e+02 1.0000000000e+01 0.0000e+00 1.0000e+00
 -5000521  1    3    3    0    0 +1.8509479335e+02 +3.4798831986e+02 +1.4368589581e+00 3.9428164787e+02 1.0000000000e+01 0.0000e+00 -1.0000e+00
       21  1    1    2  502  501 -8.7761129812e+01 +2.4651830453e+02 -1.0969929857e+03 1.1277707662e+03 0.0000000000e+00 0.0000e+00 -1.0000e+00
<mgrwt>
<rscale>  1 0.10301697E+04</rscale>
<asrwt>0</asrwt>
<pdfrwt beam="1">  1        1 0.27961880E+00 0.10301697E+04</pdfrwt>
<pdfrwt beam="2">  1       -1 0.60252870E-01 0.10301697E+04</pdfrwt>
<totfact> 0.11134330E+01</totfact>
</mgrwt>
</event>
<event>
 6      1 +3.0741590e+01 9.96592100e+02 7.81860800e-03 9.31229000e-02
       -1 -1    0    0    0  501 -0.0000000000e+00 +0.0000000000e+00 +7.4537969980e+02 7.4537969980e+02 0.0000000000e+00 0.0000e+00 -1.0000e+00
        1 -1    0    0  502    0 +0.0000000000e+00 -0.0000000000e+00 -3.6699542072e+02 3.6699542072e+02 0.0000000000e+00 0.0000e+00 1.0000e+00
  5000001  2    1    2    0    0 -2.8793252600e+01 -2.1985881131e+01 +3.2575191187e+02 1.0484799216e+03 9.9593343531e+02 0.0000e+00 0.0000e+00
  5000521  1    3    3    0    0 -2.8924618327e+02 +1.2507045461e+02 -2.4815490853e+02 4.0123164354e+02 1.0000000000e+01 0.0000e+00 1.0000e+00
 -5000521  1    3    3    0    0 +2.6045293067e+02 -1.4705633574e+02 +5.7390682039e+02 6.4724827807e+02 1.0000000000e+01 0.0000e+00 -1.0000e+00
       21  1    1    2  502  501 +2.8793252600e+01 +2.1985881131e+01 +5.2632367221e+01 6.3895198909e+01 0.0000000000e+00 0.0000e+00 1.0000e+00
<mgrwt>
<rscale>  1 0.99659211E+03</rscale>
<asrwt>0</asrwt>
<pdfrwt beam="1">  1        1 0.56460834E-01 0.99659211E+03</pdfrwt>
<pdfrwt beam="2">  1       -1 0.11467380E+00 0.99659211E+03</pdfrwt>
<totfact> 0.46643582E+01</totfact>
</mgrwt>
</event>
<event>
 6      1 +3.0741590e+01 1.01065400e+03 7.81860800e-03 9.29693600e-02
        2 -1    0    0  502    0 +0.0000000000e+00 +0.0000000000e+00 +6.1913819881e+02 6.1913819881e+02 0.0000000000e+00 0.0000e+00 1.0000e+00
       -2 -1    0    0    0  501 -0.0000000000e+00 -0.0000000000e+00 -4.5474498911e+02 4.5474498911e+02 0.0000000000e+00 0.0000e+00 -1.0000e+00
  5000001  2    1    2    0    0 -2.4883700634e+01 -2.3165678324e+01 +1.1968470991e+02 1.0177164971e+03 1.0100824676e+03 0.0000e+00 0.0000e+00
  5000521  1    3    3    0    0 +2.5610161727e+02 +3.9910118602e+02 +1.7897803112e+02 5.0695456470e+02 1.0000000000e+01 0.0000e+00 1.0000e+00
 -5000521  1    3    3    0    0 -2.8098531791e+02 -4.2226686434e+02 -5.9293321205e+01 5.1076193235e+02 1.0000000000e+01 0.0000e+00 -1.0000e+00
       21  1    1    2  502  501 +2.4883700634e+01 +2.3165678324e+01 +4.4708499784e+01 5.6166690862e+01 0.0000000000e+00 0.0000e+00 -1.0000e+00
<mgrwt>
<rscale>  1 0.10106545E+04</rscale>
<asrwt>0</asrwt>
<pdfrwt beam="1">  1        2 0.95252030E-01 0.10106545E+04</pdfrwt>
<pdfrwt beam="2">  1       -2 0.69960768E-01 0.10106545E+04</pdfrwt>
<totfact> 0.88670087E+01</totfact>
</mgrwt>
</event>
<event>
 6      1 +3.0741590e+01 1.00793000e+03 7.81860800e-03 9.29989000e-02
       21 -1    0    0  501  502 +0.0000000000e+00 +0.0000000000e+00 +2.9403352586e+02 2.9403352586e+02 0.0000000000e+00 0.0000e+00 -1.0000e+00
        2 -1    0    0  502    0 -0.0000000000e+00 -0.0000000000e+00 -1.1550244127e+03 1.1550244127e+03 0.0000000000e+00 0.0000e+00 1.0000e+00
  5000001  2    1    2    0    0 -5.0992237802e+01 +4.1628685372e+00 -9.2436073646e+02 1.3676130146e+03 1.0066305424e+03 0.0000e+00 0.0000e+00
  5000521  1    3    3    0    0 +2.9916252944e+02 -1.1704485937e+02 +4.9871990060e+01 3.2524595849e+02 1.0000000000e+01 0.0000e+00 -1.0000e+00
 -5000521  1    3    3    0    0 -3.5015476724e+02 +1.2120772791e+02 -9.7423272652e+02 1.0423670562e+03 1.0000000000e+01 0.0000e+00 1.0000e+00
        2  1    1    2  501    0 +5.0992237802e+01 -4.1628685372e+00 +6.3369849620e+01 8.1444923914e+01 0.0000000000e+00 0.0000e+00 1.0000e+00
<mgrwt>
<rscale>  1 0.10079299E+04</rscale>
<asrwt>0</asrwt>
<pdfrwt beam="1">  1       21 0.45235928E-01 0.10079299E+04</pdfrwt>
<pdfrwt beam="2">  1        2 0.17769606E+00 0.10079299E+04</pdfrwt>
<totfact> 0.10530521E+03</totfact>
</mgrwt>
</event>
<event>
 6      1 +3.0741590e+01 9.94630500e+02 7.81860800e-03 9.31445400e-02
        2 -1    0    0  502    0 +0.0000000000e+00 +0.0000000000e+00 +1.2489912061e+03 1.2489912061e+03 0.0000000000e+00 0.0000e+00 1.0000e+00
       -2 -1    0    0    0  501 -0.0000000000e+00 -0.0000000000e+00 -2.7082751119e+02 2.7082751119e+02 0.0000000000e+00 0.0000e+00 -1.0000e+00
  5000001  2    1    2    0    0 +4.3834017705e+01 +5.0397462151e+01 +1.0325500769e+03 1.4336839169e+03 9.9238530169e+02 0.0000e+00 0.0000e+00
  5000521  1    3    3    0    0 -2.2258593145e+02 +3.1958964980e+02 +9.7565466041e+02 1.0505636856e+03 1.0000000000e+01 0.0000e+00 1.0000e+00
 -5000521  1    3    3    0    0 +2.6641994915e+02 -2.6919218765e+02 +5.6895416442e+01 3.8312023127e+02 1.0000000000e+01 0.0000e+00 -1.0000e+00
       21  1    1    2  502  501 -4.3834017705e+01 -5.0397462151e+01 -5.4386381947e+01 8.6134800404e+01 0.0000000000e+00 0.0000e+00 -1.0000e+00
<mgrwt>
<rscale>  1 0.99463054E+03</rscale>
<asrwt>0</asrwt>
<pdfrwt beam="1">  1        2 0.19215249E+00 0.99463054E+03</pdfrwt>
<pdfrwt beam="2">  1       -2 0.41665772E-01 0.99463054E+03</pdfrwt>
<totfact> 0.96484796E+01</totfact>
</mgrwt>
</event>
<event>
 6      1 +3.0741590e+01 1.02610300e+03 7.81860800e-03 9.28037000e-02
       -2 -1    0    0    0  501 -0.0000000000e+00 +0.0000000000e+00 +5.4783954005e+02 5.4783954005e+02 0.0000000000e+00 0.0000e+00 1.0000e+00
        2 -1    0    0  502    0 +0.0000000000e+00 -0.0000000000e+00 -5.3380795987e+02 5.3380795987e+02 0.0000000000e+00 0.0000e+00 -1.0000e+00
  5000001  2    1    2    0    0 -2.5270946384e+01 -3.1756910847e+01 +5.0136817793e+01 1.0273270590e+03 1.0252999871e+03 0.0000e+00 0.0000e+00
  5000521  1    3    3    0    0 +3.3788608895e+02 +1.1987355256e+02 -3.2465898563e+02 4.8377694722e+02 1.0000000000e+01 0.0000e+00 -1.0000e+00
 -5000521  1    3    3    0    0 -3.6315703534e+02 -1.5163046341e+02 +3.7479580343e+02 5.4355011178e+02 1.0000000000e+01 0.0000e+00 1.0000e+00
       21  1    1    2  502  501 +2.5270946384e+01 +3.1756910847e+01 -3.6105237613e+01 5.4320440911e+01 0.0000000000e+00 0.0000e+00 1.0000e+00
<mgrwt>
<rscale>  1 0.10261029E+04</rscale>
<asrwt>0</asrwt>
<pdfrwt beam="1">  1        2 0.82124301E-01 0.10261029E+04</pdfrwt>
<pdfrwt beam="2">  1       -2 0.84283006E-01 0.10261029E+04</pdfrwt>
<totfact> 0.69846713E+01</totfact>
</mgrwt>
</event>
<event>
 6      1 +3.0741590e+01 1.00912400e+03 7.81860800e-03 9.29859500e-02
        2 -1    0    0  502    0 +0.0000000000e+00 +0.0000000000e+00 +2.5082126568e+02 2.5082126568e+02 0.0000000000e+00 0.0000e+00 -1.0000e+00
       -2 -1    0    0    0  501 -0.0000000000e+00 -0.0000000000e+00 -1.4297756815e+03 1.4297756815e+03 0.0000000000e+00 0.0000e+00 1.0000e+00
  5000001  2    1    2    0    0 +4.8140122400e+01 +5.8928365093e-01 -7.7135696966e+02 1.2701660800e+03 1.0079744428e+03 0.0000e+00 0.0000e+00
  5000521  1    3    3    0    0 +2.1631826048e+02 +2.8959430968e+02 -8.5242954466e+02 9.2595603709e+02 1.0000000000e+01 0.0000e+00 1.0000e+00
 -5000521  1    3    3    0    0 -1.6817813808e+02 -2.8900502603e+02 +8.1072575007e+01 3.4421004287e+02 1.0000000000e+01 0.0000e+00 -1.0000e+00
       21  1    1    2  502  501 -4.8140122400e+01 -5.8928365093e-01 -4.0759744617e+02 4.1043086722e+02 0.0000000000e+00 0.0000e+00 1.0000e+00
<mgrwt>
<rscale>  1 0.10091235E+04</rscale>
<asrwt>0</asrwt>
<pdfrwt beam="1">  1        2 0.38587887E-01 0.10091235E+04</pdfrwt>
<pdfrwt beam="2">  1       -2 0.21996549E+00 0.10091235E+04</pdfrwt>
<totfact> 0.13250443E+01</totfact>
</mgrwt>
</event>
<event>
 5      1 +3.0741590e+01 3.31009800e+02 7.81860800e-03 1.07069100e-01
       21 -1    0    0  501  502 +0.0000000000e+00 +0.0000000000e+00 +5.3078527229e+01 5.3078527229e+01 0.0000000000e+00 0.0000e+00 -1.0000e+00
        2 -1    0    0  502    0 -0.0000000000e+00 -0.0000000000e+00 -1.2006159990e+03 1.2006159990e+03 0.0000000000e+00 0.0000e+00 -1.0000e+00
  5000521  1    1    2    0    0 +1.1709029496e+02 -4.8122743289e+01 -9.2137091420e+02 9.3008080140e+02 1.0000000000e+01 0.0000e+00 -1.0000e+00
 -5000521  1    1    2    0    0 -1.3691918043e+02 +3.4595021134e+01 -2.5156508927e+02 2.8866706011e+02 1.0000000000e+01 0.0000e+00 1.0000e+00
        2  1    1    2  501    0 +1.9828885469e+01 +1.3527722155e+01 +2.5398531671e+01 3.4946664744e+01 0.0000000000e+00 0.0000e+00 -1.0000e+00
<mgrwt>
<rscale>  1 0.33100979E+03</rscale>
<asrwt>0</asrwt>
<pdfrwt beam="1">  1       21 0.81659270E-02 0.33100979E+03</pdfrwt>
<pdfrwt beam="2">  1        2 0.18471016E+00 0.33100979E+03</pdfrwt>
<totfact> 0.28846519E+04</totfact>
</mgrwt>
</event>
<event>
 6      1 +3.0741590e+01 1.03551200e+03 7.81860800e-03 9.27043100e-02
       -2 -1    0    0    0  501 -0.0000000000e+00 +0.0000000000e+00 +2.7921256025e+02 2.7921256025e+02 0.0000000000e+00 0.0000e+00 -1.0000e+00
        2 -1    0    0  502    0 +0.0000000000e+00 -0.0000000000e+00 -1.0315510641e+03 1.0315510641e+03 0.0000000000e+00 0.0000e+00 1.0000e+00
  5000001  2    1    2    0    0 -2.6753011502e+01 -3.8980928733e+00 -7.5780455654e+02 1.2831810849e+03 1.0351594235e+03 0.0000e+00 0.0000e+00
  5000521  1    3    3    0    0 -1.3210364883e+02 +4.1789725076e+02 -7.2479277345e+02 8.4706201111e+02 1.0000000000e+01 0.0000e+00 1.0000e+00
 -5000521  1    3    3    0    0 +1.0535063733e+02 -4.2179534363e+02 -3.3011783092e+01 4.3611907378e+02 1.0000000000e+01 0.0000e+00 -1.0000e+00
       21  1    1    2  502  501 +2.6753011502e+01 +3.8980928733e+00 +5.4660526674e+00 2.7582539481e+01 0.0000000000e+00 0.0000e+00 -1.0000e+00
<mgrwt>
<rscale>  1 0.10355124E+04</rscale>
<asrwt>0</asrwt>
<pdfrwt beam="1">  1        2 0.15870016E+00 0.10355124E+04</pdfrwt>
<pdfrwt beam="2">  1       -2 0.42955778E-01 0.10355124E+04</pdfrwt>
<totfact> 0.12301683E+02</totfact>
</mgrwt>
</event>
<event>
 6      1 +3.0741590e+01 9.97908200e+02 7.81860800e-03 9.31084200e-02
        4 -1    0    0  502    0 +0.0000000000e+00 +0.0000000000e+00 +3.6877139603e+02 3.6877139603e+02 0.0000000000e+00 0.0000e+00 1.0000e+00
       -4 -1    0    0    0  501 -0.0000000000e+00 -0.0000000000e+00 -8.5551329149e+02 8.5551329149e+02 0.0000000000e+00 0.0000e+00 -1.0000e+00
  5000001  2    1    2    0    0 -8.3277094574e+00 -2.0579579006e+01 -3.0827131457e+02 1.0444385920e+03 9.9766121471e+02 0.0000e+00 0.0000e+00
  5000521  1    3    3    0    0 -9.0220943405e+01 +3.5133325531e+02 -5.0012689388e+02 6.1790111255e+02 1.0000000000e+01 0.0000e+00 -1.0000e+00
 -5000521  1    3    3    0    0 +8.1893233948e+01 -3.7191283432e+02 +1.9185557930e+02 4.2653747949e+02 1.0000000000e+01 0.0000e+00 1.0000e+00
       21  1    1    2  502  501 +8.3277094574e+00 +2.0579579006e+01 -1.7847058089e+02 1.7984609548e+02 0.0000000000e+00 0.0000e+00 -1.0000e+00
<mgrwt>
<rscale>  1 0.99790820E+03</rscale>
<asrwt>0</asrwt>
<pdfrwt beam="1">  1        4 0.56734062E-01 0.99790820E+03</pdfrwt>
<pdfrwt beam="2">  1       -4 0.13161743E+00 0.99790820E+03</pdfrwt>
<totfact> 0.24452655E+00</totfact>
</mgrwt>
</event>
<event>
 6      1 +3.0741590e+01 1.02386500e+03 7.81860800e-03 9.28275000e-02
       -2 -1    0    0    0  501 -0.0000000000e+00 +0.0000000000e+00 +8.4454892809e+02 8.4454892809e+02 0.0000000000e+00 0.0000e+00 -1.0000e+00
        2 -1    0    0  502    0 +0.0000000000e+00 -0.0000000000e+00 -3.2888501065e+02 3.2888501065e+02 0.0000000000e+00 0.0000e+00 1.0000e+00
  5000001  2    1    2    0    0 -6.8038576772e+00 -2.0379504369e+01 +5.2427336521e+02 1.1502878966e+03 1.0236396177e+03 0.0000e+00 0.0000e+00
  5000521  1    3    3    0    0 -3.1425903325e+02 +1.7801168242e+01 -1.9268242648e+02 3.6919119578e+02 1.0000000000e+01 0.0000e+00 1.0000e+00
 -5000521  1    3    3    0    0 +3.0745517557e+02 -3.8180672611e+01 +7.1695579168e+02 7.8109670078e+02 1.0000000000e+01 0.0000e+00 -1.0000e+00
       21  1    1    2  502  501 +6.8038576772e+00 +2.0379504369e+01 -8.6094477708e+00 2.3146042178e+01 0.0000000000e+00 0.0000e+00 -1.0000e+00
<mgrwt>
<rscale>  1 0.10238651E+04</rscale>
<asrwt>0</asrwt>
<pdfrwt beam="1">  1        2 0.50597694E-01 0.10238651E+04</pdfrwt>
<pdfrwt beam="2">  1       -2 0.12993060E+00 0.10238651E+04</pdfrwt>
<totfact> 0.42923114E+01</totfact>
</mgrwt>
</event>
<event>
 6      1 +3.0741590e+01 9.95092000e+02 7.81860800e-03 9.31394400e-02
        3 -1    0    0  502    0 +0.0000000000e+00 +0.0000000000e+00 +1.0544035361e+02 1.0544035361e+02 0.0000000000e+00 0.0000e+00 -1.0000e+00
       -3 -1    0    0    0  501 -0.0000000000e+00 -0.0000000000e+00 -2.6637308487e+03 2.6637308487e+03 0.0000000000e+00 0.0000e+00 1.0000e+00
  5000001  2    1    2    0    0 -2.6021334847e+01 +1.0931702681e+00 -2.2554208349e+03 2.4651838079e+03 9.9475110423e+02 0.0000e+00 0.0000e+00
  5000521  1    3    3    0    0 -4.4366620345e+02 +1.3961858756e+02 -6.4221855778e+02 7.9301811205e+02 1.0000000000e+01 0.0000e+00 -1.0000e+00
 -5000521  1    3    3    0    0 +4.1764486860e+02 -1.3852541729e+02 -1.6132022772e+03 1.6721656959e+03 1.0000000000e+01 0.0000e+00 1.0000e+00
       21  1    1    2  502  501 +2.6021334847e+01 -1.0931702681e+00 -3.0286966018e+02 3.0398739438e+02 0.0000000000e+00 0.0000e+00 1.0000e+00
<mgrwt>
<rscale>  1 0.99509199E+03</rscale>
<asrwt>0</asrwt>
<pdfrwt beam="1">  1        3 0.16221593E-01 0.99509199E+03</pdfrwt>
<pdfrwt beam="2">  1       -3 0.40980475E+00 0.99509199E+03</pdfrwt>
<totfact> 0.83909897E-01</totfact>
</mgrwt>
</event>
<event>
 6      1 +3.0741590e+01 1.00213200e+03 7.81860800e-03 9.30620900e-02
       -1 -1    0    0    0  501 -0.0000000000e+00 +0.0000000000e+00 +1.1255080625e+03 1.1255080625e+03 0.0000000000e+00 0.0000e+00 1.0000e+00
        1 -1    0    0  502    0 +0.0000000000e+00 -0.0000000000e+00 -3.8433717741e+02 3.8433717741e+02 0.0000000000e+00 0.0000e+00 -1.0000e+00
  5000001  2    1    2    0    0 -3.5251883005e+01 +2.3035918853e+00 +9.0011359869e+02 1.3470239023e+03 1.0015093115e+03 0.0000e+00 0.0000e+00
  5000521  1    3    3    0    0 +2.8530691578e+02 -2.0334557868e+02 +9.0021208093e+02 9.6603894912e+02 1.0000000000e+01 0.0000e+00 1.0000e+00
 -5000521  1    3    3    0    0 -3.2055879878e+02 +2.0564917056e+02 -9.8482240990e-02 3.8098495316e+02 1.0000000000e+01 0.0000e+00 -1.0000e+00
       21  1    1    2  502  501 +3.5251883005e+01 -2.3035918853e+00 -1.5894271358e+02 1.6282133764e+02 0.0000000000e+00 0.0000e+00 1.0000e+00
<mgrwt>
<rscale>  1 0.10021322E+04</rscale>
<asrwt>0</asrwt>
<pdfrwt beam="1">  1        1 0.59128797E-01 0.10021322E+04</pdfrwt>
<pdfrwt beam="2">  1       -1 0.17315509E+00 0.10021322E+04</pdfrwt>
<totfact> 0.14813443E+01</totfact>
</mgrwt>
</event>
<event>
 5      1 +3.0741590e+01 7.25773400e+02 7.81860800e-03 9.67414400e-02
        1 -1    0    0  502    0 +0.0000000000e+00 +0.0000000000e+00 +2.2309987903e+03 2.2309987903e+03 0.0000000000e+00 0.0000e+00 -1.0000e+00
       -1 -1    0    0    0  501 -0.0000000000e+00 -0.0000000000e+00 -6.6124378495e+01 6.6124378495e+01 0.0000000000e+00 0.0000e+00 1.0000e+00
  5000521  1    1    2    0    0 -2.2754769860e+02 -4.0628551561e+01 +1.8277632133e+02 2.9484880529e+02 1.0000000000e+01 0.0000e+00 1.0000e+00
 -5000521  1    1    2    0    0 +1.9069931148e+02 +5.4807718338e+01 +1.9079852290e+03 1.9183007448e+03 1.0000000000e+01 0.0000e+00 -1.0000e+00
       21  1    1    2  502  501 +3.6848387121e+01 -1.4179166776e+01 +7.4112861483e+01 8.3973618721e+01 0.0000000000e+00 0.0000e+00 1.0000e+00
<mgrwt>
<rscale>  1 0.72577343E+03</rscale>
<asrwt>0</asrwt>
<pdfrwt beam="1">  1        1 0.34323053E+00 0.72577343E+03</pdfrwt>
<pdfrwt beam="2">  1       -1 0.10172983E-01 0.72577343E+03</pdfrwt>
<totfact> 0.13220969E+02</totfact>
</mgrwt>
</event>
<event>
 6      1 +3.0741590e+01 1.00347800e+03 7.81860800e-03 9.30473900e-02
       -2 -1    0    0    0  501 -0.0000000000e+00 +0.0000000000e+00 +1.2612854418e+02 1.2612854418e+02 0.0000000000e+00 0.0000e+00 1.0000e+00
        2 -1    0    0  502    0 +0.0000000000e+00 -0.0000000000e+00 -2.4881186140e+03 2.4881186140e+03 0.0000000000e+00 0.0000e+00 -1.0000e+00
  5000001  2    1    2    0    0 -6.0655126954e+01 +6.5050246977e+01 -2.2886166607e+03 2.4989465241e+03 9.9952835453e+02 0.0000e+00 0.0000e+00
  5000521  1    3    3    0    0 +4.1498372594e+02 +7.9984002546e+01 -1.6449856559e+03 1.6984365580e+03 1.0000000000e+01 0.0000e+00 -1.0000e+00
 -5000521  1    3    3    0    0 -4.7563885289e+02 -1.4933755569e+01 -6.4363100481e+02 8.0050996608e+02 1.0000000000e+01 0.0000e+00 1.0000e+00
       21  1    1    2  502  501 +6.0655126954e+01 -6.5050246977e+01 -7.3373409111e+01 1.1530063409e+02 0.0000000000e+00 0.0000e+00 -1.0000e+00
<mgrwt>
<rscale>  1 0.10034777E+04</rscale>
<asrwt>0</asrwt>
<pdfrwt beam="1">  1        2 0.38278748E+00 0.10034777E+04</pdfrwt>
<pdfrwt beam="2">  1       -2 0.19404391E-01 0.10034777E+04</pdfrwt>
<totfact> 0.80488513E+01</totfact>
</mgrwt>
</event>
<event>
 6      1 +3.0741590e+01 9.64622000e+02 7.81860800e-03 9.34822100e-02
       -2 -1    0    0    0  501 -0.0000000000e+00 +0.0000000000e+00 +3.3636143613e+02 3.3636143613e+02 0.0000000000e+00 0.0000e+00 1.0000e+00
        2 -1    0    0  502    0 +0.0000000000e+00 -0.0000000000e+00 -8.2917473277e+02 8.2917473277e+02 0.0000000000e+00 0.0000e+00 -1.0000e+00
  5000001  2    1    2    0    0 -1.3159092950e+01 +3.0753040107e+01 -5.4168868627e+02 1.1063102040e+03 9.6404186814e+02 0.0000e+00 0.0000e+00
  5000521  1    3    3    0    0 -1.3887688489e+02 -5.8970935902e+01 +2.5405777898e+02 2.9565134111e+02 1.0000000000e+01 0.0000e+00 1.0000e+00
 -5000521  1    3    3    0    0 +1.2571779194e+02 +8.9723976009e+01 -7.9574646525e+02 8.1065886293e+02 1.0000000000e+01 0.0000e+00 -1.0000e+00
       21  1    1    2  502  501 +1.3159092950e+01 -3.0753040107e+01 +4.8875389624e+01 5.9225964863e+01 0.0000000000e+00 0.0000e+00 -1.0000e+00
<mgrwt>
<rscale>  1 0.96462202E+03</rscale>
<asrwt>0</asrwt>
<pdfrwt beam="1">  1        2 0.12756534E+00 0.96462202E+03</pdfrwt>
<pdfrwt beam="2">  1       -2 0.51747914E-01 0.96462202E+03</pdfrwt>
<totfact> 0.11575563E+02</totfact>
</mgrwt>
</event>
<event>
 6      1 +3.0741590e+01 1.00351300e+03 7.81860800e-03 9.30470000e-02
        2 -1    0    0  502    0 +0.0000000000e+00 +0.0000000000e+00 +1.4657279951e+03 1.4657279951e+03 0.0000000000e+00 0.0000e+00 1.0000e+00
       -2 -1    0    0    0  501 -0.0000000000e+00 -0.0000000000e+00 -2.0873380479e+02 2.0873380479e+02 0.0000000000e+00 0.0000e+00 -1.0000e+00
  5000001  2    1    2    0    0 -8.4536616029e+01 -1.9790711107e+01 +1.0625993249e+03 1.4615592978e+03 9.9975004075e+02 0.0000e+00 0.0000e+00
  5000521  1    3    3    0    0 -1.3568549377e+02 +1.8008531384e+02 +1.1950537514e+03 1.2161803905e+03 1.0000000000e+01 0.0000e+00 1.0000e+00
 -5000521  1    3    3    0    0 +5.1148877739e+01 -1.9987602495e+02 -1.3245442651e+02 2.4537890730e+02 1.0000000000e+01 0.0000e+00 -1.0000e+00
       21  1    1    2  502  501 +8.4536616029e+01 +1.9790711107e+01 +1.9439486546e+02 2.1290250213e+02 0.0000000000e+00 0.0000e+00 1.0000e+00
<mgrwt>
<rscale>  1 0.10035130E+04</rscale>
<asrwt>0</asrwt>
<pdfrwt beam="1">  1        2 0.22549661E+00 0.10035130E+04</pdfrwt>
<pdfrwt beam="2">  1       -2 0.32112894E-01 0.10035130E+04</pdfrwt>
<totfact> 0.11952863E+02</totfact>
</mgrwt>
</event>
<event>
 6      1 +3.0741590e+01 9.87553100e+02 7.81860800e-03 9.32230300e-02
       -2 -1    0    0    0  501 -0.0000000000e+00 +0.0000000000e+00 +1.8446975810e+02 1.8446975810e+02 0.0000000000e+00 0.0000e+00 -1.0000e+00
        2 -1    0    0  502    0 +0.0000000000e+00 -0.0000000000e+00 -1.7429839727e+03 1.7429839727e+03 0.0000000000e+00 0.0000e+00 1.0000e+00
  5000001  2    1    2    0    0 -3.0431280634e+01 +1.4507119467e+01 -1.1428287430e+03 1.5104034573e+03 9.8697748127e+02 0.0000e+00 0.0000e+00
  5000521  1    3    3    0    0 -3.2318028806e+02 +3.9142108507e+02 -6.4263728747e+02 8.1898635378e+02 1.0000000000e+01 0.0000e+00 -1.0000e+00
 -5000521  1    3    3    0    0 +2.9274900742e+02 -3.7691396560e+02 -5.0019145555e+02 6.9141710351e+02 1.0000000000e+01 0.0000e+00 1.0000e+00
       21  1    1    2  502  501 +3.0431280634e+01 -1.4507119467e+01 -4.1568547162e+02 4.1705027355e+02 0.0000000000e+00 0.0000e+00 -1.0000e+00
<mgrwt>
<rscale>  1 0.98755307E+03</rscale>
<asrwt>0</asrwt>
<pdfrwt beam="1">  1        2 0.26815138E+00 0.98755307E+03</pdfrwt>
<pdfrwt beam="2">  1       -2 0.28379963E-01 0.98755307E+03</pdfrwt>
<totfact> 0.10561950E+02</totfact>
</mgrwt>
</event>
<event>
 6      1 +3.0741590e+01 9.88647400e+02 7.81860800e-03 9.32108400e-02
       -2 -1    0    0    0  501 -0.0000000000e+00 +0.0000000000e+00 +9.7337545897e+02 9.7337545897e+02 0.0000000000e+00 0.0000e+00 1.0000e+00
        2 -1    0    0  502    0 +0.0000000000e+00 -0.0000000000e+00 -2.6475341931e+02 2.6475341931e+02 0.0000000000e+00 0.0000e+00 -1.0000e+00
  5000001  2    1    2    0    0 +1.6723060257e+01 -1.8172451260e+01 +7.0209596180e+02 1.2125850254e+03 9.8833891224e+02 0.0000e+00 0.0000e+00
  5000521  1    3    3    0    0 -7.6359180041e+01 -4.0261757373e+02 +7.0658419993e+02 8.1687995852e+02 1.0000000000e+01 0.0000e+00 1.0000e+00
 -5000521  1    3    3    0    0 +9.3082240299e+01 +3.8444512247e+02 -4.4882381240e+00 3.9570506685e+02 1.0000000000e+01 0.0000e+00 -1.0000e+00
       21  1    1    2  502  501 -1.6723060257e+01 +1.8172451260e+01 +6.5260778618e+00 2.5543852909e+01 0.0000000000e+00 0.0000e+00 1.0000e+00
<mgrwt>
<rscale>  1 0.98864741E+03</rscale>
<asrwt>0</asrwt>
<pdfrwt beam="1">  1        2 0.40731296E-01 0.98864741E+03</pdfrwt>
<pdfrwt beam="2">  1       -2 0.14975007E+00 0.98864741E+03</pdfrwt>
<totfact> 0.37908900E+01</totfact>
</mgrwt>
</event>
<event>
 6      1 +3.0741590e+01 9.88068300e+02 7.81860800e-03 9.32172900e-02
        2 -1    0    0  502    0 +0.0000000000e+00 +0.0000000000e+00 +9.4195548156e+02 9.4195548156e+02 0.0000000000e+00 0.0000e+00 -1.0000e+00
       -2 -1    0    0    0  501 -0.0000000000e+00 -0.0000000000e+00 -2.7691002665e+02 2.7691002665e+02 0.0000000000e+00 0.0000e+00 1.0000e+00
  5000001  2    1    2    0    0 -2.0250485546e+01 +2.3054228863e+01 +6.5877812326e+02 1.1875468384e+03 9.8759166565e+02 0.0000e+00 0.0000e+00
  5000521  1    3    3    0    0 +5.4006014783e+01 +4.0731793043e+02 -1.1661157073e+01 4.1116970787e+02 1.0000000000e+01 0.0000e+00 1.0000e+00
 -5000521  1    3    3    0    0 -7.4256500329e+01 -3.8426370157e+02 +6.7043928033e+02 7.7637713052e+02 1.0000000000e+01 0.0000e+00 -1.0000e+00
       21  1    1    2  502  501 +2.0250485546e+01 -2.3054228863e+01 +6.2673316538e+00 3.1318669821e+01 0.0000000000e+00 0.0000e+00 1.0000e+00
<mgrwt>
<rscale>  1 0.98806826E+03</rscale>
<asrwt>0</asrwt>
<pdfrwt beam="1">  1        2 0.14491623E+00 0.98806826E+03</pdfrwt>
<pdfrwt beam="2">  1       -2 0.42601543E-01 0.98806826E+03</pdfrwt>
<totfact> 0.14330596E+02</totfact>
</mgrwt>
</event>
<event>
 6      1 +3.0741590e+01 9.81299900e+02 7.81860800e-03 9.32929600e-02
       -2 -1    0    0    0  501 -0.0000000000e+00 +0.0000000000e+00 +8.7476143918e+01 8.7476143918e+01 0.0000000000e+00 0.0000e+00 -1.0000e+00
        2 -1    0    0  502    0 +0.0000000000e+00 -0.0000000000e+00 -2.8971515981e+03 2.8971515981e+03 0.0000000000e+00 0.0000e+00 1.0000e+00
  5000001  2    1    2    0    0 +2.0480134658e+01 -1.0887971902e+00 -2.6941800477e+03 2.8673255242e+03 9.8108557767e+02 0.0000e+00 0.0000e+00
  5000521  1    3    3    0    0 -3.5277847896e+02 -1.0380956146e+02 -4.1122207824e+02 5.5175418250e+02 1.0000000000e+01 0.0000e+00 -1.0000e+00
 -5000521  1    3    3    0    0 +3.7325861362e+02 +1.0272076427e+02 -2.2829579695e+03 2.3155713417e+03 1.0000000000e+01 0.0000e+00 1.0000e+00
       21  1    1    2  502  501 -2.0480134658e+01 +1.0887971902e+00 -1.1549540646e+02 1.1730221783e+02 0.0000000000e+00 0.0000e+00 -1.0000e+00
<mgrwt>
<rscale>  1 0.98129992E+03</rscale>
<asrwt>0</asrwt>
<pdfrwt beam="1">  1        2 0.44571559E+00 0.98129992E+03</pdfrwt>
<pdfrwt beam="2">  1       -2 0.13457869E-01 0.98129992E+03</pdfrwt>
<totfact> 0.86903364E+01</totfact>
</mgrwt>
</event>
<event>
 6      1 +3.0741590e+01 1.00872000e+03 7.81860800e-03 9.29903200e-02
       -2 -1    0    0    0  501 -0.0000000000e+00 +0.0000000000e+00 +7.8939003060e+01 7.8939003060e+01 0.0000000000e+00 0.0000e+00 1.0000e+00
        2 -1    0    0  502    0 +0.0000000000e+00 -0.0000000000e+00 -3.9143061273e+03 3.9143061273e+03 0.0000000000e+00 0.0000e+00 -1.0000e+00
  5000001  2    1    2    0    0 -9.2202658016e-01 -9.9742568569e+01 -3.3928399682e+03 3.5396156406e+03 1.0037760724e+03 0.0000e+00 0.0000e+00
  5000521  1    3    3    0    0 -2.4753740120e+02 -2.6855565131e+02 -4.4111207001e+02 5.7277985400e+02 1.0000000000e+01 0.0000e+00 1.0000e+00
 -5000521  1    3    3    0    0 +2.4661537462e+02 +1.6881308274e+02 -2.9517278982e+03 2.9668357866e+03 1.0000000000e+01 0.0000e+00 -1.0000e+00
       21  1    1    2  502  501 +9.2202658016e-01 +9.9742568569e+01 -4.4252715608e+02 4.5362948976e+02 0.0000000000e+00 0.0000e+00 1.0000e+00
<mgrwt>
<rscale>  1 0.10087199E+04</rscale>
<asrwt>0</asrwt>
<pdfrwt beam="1">  1        2 0.60220081E+00 0.10087199E+04</pdfrwt>
<pdfrwt beam="2">  1       -2 0.12144465E-01 0.10087199E+04</pdfrwt>
<totfact> 0.21046518E+01</totfact>
</mgrwt>
</event>
<event>
 6      1 +3.0741590e+01 1.00491000e+03 7.81860800e-03 9.30317500e-02
        2 -1    0    0  502    0 +0.0000000000e+00 +0.0000000000e+00 +2.1155894878e+03 2.1155894878e+03 0.0000000000e+00 0.0000e+00 1.0000e+00
       -2 -1    0    0    0  501 -0.0000000000e+00 -0.0000000000e+00 -3.1151442862e+02 3.1151442862e+02 0.0000000000e+00 0.0000e+00 -1.0000e+00
  5000001  2    1    2    0    0 +9.0951954263e+01 -2.9438521138e+01 +5.0527045272e+02 1.1247858714e+03 1.0003530085e+03 0.0000e+00 0.0000e+00
  5000521  1    3    3    0    0 -2.3457577768e+02 -3.7460810852e+02 +4.7552277431e+02 6.4929110523e+02 1.0000000000e+01 0.0000e+00 1.0000e+00
 -5000521  1    3    3    0    0 +3.2552773195e+02 +3.4516958738e+02 +2.9747678407e+01 4.7549476621e+02 1.0000000000e+01 0.0000e+00 -1.0000e+00
       21  1    1    2  502  501 -9.0951954263e+01 +2.9438521138e+01 +1.2988046065e+03 1.3023180450e+03 0.0000000000e+00 0.0000e+00 1.0000e+00
<mgrwt>
<rscale>  1 0.10049105E+04</rscale>
<asrwt>0</asrwt>
<pdfrwt beam="1">  1        2 0.32547530E+00 0.10049105E+04</pdfrwt>
<pdfrwt beam="2">  1       -2 0.47925298E-01 0.10049105E+04</pdfrwt>
<totfact> 0.23879234E+01</totfact>
</mgrwt>
</event>
<event>
 6      1 +3.0741590e+01 1.00814100e+03 7.81860800e-03 9.29966100e-02
        2 -1    0    0  502    0 -0.0000000000e+00 +0.0000000000e+00 +1.6542219045e+03 1.6542219045e+03 0.0000000000e+00 0.0000e+00 -1.0000e+00
       21 -1    0    0  501  502 +0.0000000000e+00 -0.0000000000e+00 -1.6197900988e+02 1.6197900988e+02 0.0000000000e+00 0.0000e+00 1.0000e+00
  5000001  2    1    2    0    0 -1.9466335539e+01 +1.0382499697e+01 +1.4259514918e+03 1.7463347237e+03 1.0078990900e+03 0.0000e+00 0.0000e+00
  5000521  1    3    3    0    0 -1.6637553459e+02 -2.5353383812e+02 +1.5436346663e+01 3.0380669246e+02 1.0000000000e+01 0.0000e+00 1.0000e+00
 -5000521  1    3    3    0    0 +1.4690919906e+02 +2.6391633781e+02 +1.4105151452e+03 1.4425280312e+03 1.0000000000e+01 0.0000e+00 -1.0000e+00
        2  1    1    2  501    0 +1.9466335539e+01 -1.0382499697e+01 +6.6291402750e+01 6.9866190663e+01 0.0000000000e+00 0.0000e+00 -1.0000e+00
<mgrwt>
<rscale>  1 0.10081405E+04</rscale>
<asrwt>0</asrwt>
<pdfrwt beam="1">  1       21 0.24919849E-01 0.10081405E+04</pdfrwt>
<pdfrwt beam="2">  1        2 0.25449567E+00 0.10081405E+04</pdfrwt>
<totfact> 0.18470561E+03</totfact>
</mgrwt>
</event>
<event>
 6      1 +3.0741590e+01 1.01252400e+03 7.81860800e-03 9.29491500e-02
       -3 -1    0    0    0  501 -0.0000000000e+00 +0.0000000000e+00 +2.2134532632e+02 2.2134532632e+02 0.0000000000e+00 0.0000e+00 -1.0000e+00
        3 -1    0    0  502    0 +0.0000000000e+00 -0.0000000000e+00 -1.6029697353e+03 1.6029697353e+03 0.0000000000e+00 0.0000e+00 1.0000e+00
  5000001  2    1    2    0    0 +1.9549246235e+01 +5.9852597178e+01 -1.4248286452e+03 1.7479533405e+03 1.0105640533e+03 0.0000e+00 0.0000e+00
  5000521  1    3    3    0    0 +9.8475629572e+01 +4.1793500870e+02 -2.0833234062e+02 4.7735676937e+02 1.0000000000e+01 0.0000e+00 -1.0000e+00
 -5000521  1    3    3    0    0 -7.8926383337e+01 -3.5808241152e+02 -1.2164963046e+03 1.2705965711e+03 1.0000000000e+01 0.0000e+00 1.0000e+00
       21  1    1    2  502  501 -1.9549246235e+01 -5.9852597178e+01 +4.3204236273e+01 7.6361721099e+01 0.0000000000e+00 0.0000e+00 1.0000e+00
<mgrwt>
<rscale>  1 0.10125237E+04</rscale>
<asrwt>0</asrwt>
<pdfrwt beam="1">  1        3 0.24661072E+00 0.10125237E+04</pdfrwt>
<pdfrwt beam="2">  1       -3 0.34053128E-01 0.10125237E+04</pdfrwt>
<totfact> 0.17218788E+00</totfact>
</mgrwt>
</event>
<event>
 6      1 +3.0741590e+01 9.34309800e+02 7.81860800e-03 9.38368000e-02
       -2 -1    0    0    0  501 -0.0000000000e+00 +0.0000000000e+00 +2.4352821821e+02 2.4352821821e+02 0.0000000000e+00 0.0000e+00 -1.0000e+00
        2 -1    0    0  502    0 +0.0000000000e+00 -0.0000000000e+00 -1.1013662898e+03 1.1013662898e+03 0.0000000000e+00 0.0000e+00 1.0000e+00
  5000001  2    1    2    0    0 +4.7701991951e+01 -6.7157992318e+01 -7.0208450063e+02 1.1686990176e+03 9.3067130169e+02 0.0000e+00 0.0000e+00
  5000521  1    3    3    0    0 -2.1642058345e+02 +3.1706609293e+02 -5.6401012966e+02 6.8233144629e+02 1.0000000000e+01 0.0000e+00 -1.0000e+00
 -5000521  1    3    3    0    0 +2.6412257541e+02 -3.8422408525e+02 -1.3807437096e+02 4.8636757133e+02 1.0000000000e+01 0.0000e+00 1.0000e+00
       21  1    1    2  502  501 -4.7701991951e+01 +6.7157992318e+01 -1.5575357093e+02 1.7619549036e+02 0.0000000000e+00 0.0000e+00 1.0000e+00
<mgrwt>
<rscale>  1 0.93430977E+03</rscale>
<asrwt>0</asrwt>
<pdfrwt beam="1">  1        2 0.16944097E+00 0.93430977E+03</pdfrwt>
<pdfrwt beam="2">  1       -2 0.37465879E-01 0.93430977E+03</pdfrwt>
<totfact> 0.14621708E+02</totfact>
</mgrwt>
</event>
<event>
 6      1 +3.0741590e+01 1.08505400e+03 7.81860800e-03 9.21988300e-02
        1 -1    0    0  502    0 -0.0000000000e+00 +0.0000000000e+00 +1.0674513040e+03 1.0674513040e+03 0.0000000000e+00 0.0000e+00 1.0000e+00
       21 -1    0    0  501  502 +0.0000000000e+00 -0.0000000000e+00 -5.2158351137e+02 5.2158351137e+02 0.0000000000e+00 0.0000e+00 1.0000e+00
  5000001  2    1    2    0    0 +1.1997044428e+02 +3.7365296947e+02 +4.9734546658e+02 1.1936061047e+03 1.0115995111e+03 0.0000e+00 0.0000e+00
  5000521  1    3    3    0    0 -2.8478944351e+02 +9.8314327657e+01 -1.8505522097e+02 3.5371764016e+02 1.0000000000e+01 0.0000e+00 -1.0000e+00
 -5000521  1    3    3    0    0 +4.0475988778e+02 +2.7533864181e+02 +6.8240068755e+02 8.3988846450e+02 1.0000000000e+01 0.0000e+00 1.0000e+00
        1  1    1    2  501    0 -1.1997044428e+02 -3.7365296947e+02 +4.8522325995e+01 3.9542871066e+02 0.0000000000e+00 0.0000e+00 1.0000e+00
<mgrwt>
<rscale>  1 0.10850544E+04</rscale>
<asrwt>0</asrwt>
<pdfrwt beam="1">  1       21 0.80243617E-01 0.10850544E+04</pdfrwt>
<pdfrwt beam="2">  1        1 0.16422328E+00 0.10850544E+04</pdfrwt>
<totfact> 0.16982776E+02</totfact>
</mgrwt>
</event>
<event>
 6      1 +3.0741590e+01 1.02069600e+03 7.81860800e-03 9.28613300e-02
       -2 -1    0    0    0  501 -0.0000000000e+00 +0.0000000000e+00 +8.1303439367e+02 8.1303439367e+02 0.0000000000e+00 0.0000e+00 1.0000e+00
        2 -1    0    0  502    0 +0.0000000000e+00 -0.0000000000e+00 -1.6431087772e+03 1.6431087772e+03 0.0000000000e+00 0.0000e+00 -1.0000e+00
  5000001  2    1    2    0    0 -2.6222833961e+01 -4.7405139321e+01 +4.9191168468e+02 1.1330475399e+03 1.0192569538e+03 0.0000e+00 0.0000e+00
  5000521  1    3    3    0    0 -3.7440884905e+02 -9.5776473120e+01 +6.4301895636e+02 7.5028561048e+02 1.0000000000e+01 0.0000e+00 1.0000e+00
 -5000521  1    3    3    0    0 +3.4818601509e+02 +4.8371333800e+01 -1.5110727168e+02 3.8276192939e+02 1.0000000000e+01 0.0000e+00 -1.0000e+00
       21  1    1    2  502  501 +2.6222833961e+01 +4.7405139321e+01 -1.3219860682e+03 1.3230956310e+03 0.0000000000e+00 0.0000e+00 -1.0000e+00
<mgrwt>
<rscale>  1 0.10206957E+04</rscale>
<asrwt>0</asrwt>
<pdfrwt beam="1">  1        2 0.25278596E+00 0.10206957E+04</pdfrwt>
<pdfrwt beam="2">  1       -2 0.12508222E+00 0.10206957E+04</pdfrwt>
<totfact> 0.50121720E+00</totfact>
</mgrwt>
</event>
<event>
 6      1 +3.0741590e+01 9.96327900e+02 7.81860800e-03 9.31258100e-02
       -2 -1    0    0    0  501 -0.0000000000e+00 +0.0000000000e+00 +5.4430614390e+02 5.4430614390e+02 0.0000000000e+00 0.0000e+00 -1.0000e+00
        2 -1    0    0  502    0 +0.0000000000e+00 -0.0000000000e+00 -5.6585312640e+02 5.6585312640e+02 0.0000000000e+00 0.0000e+00 1.0000e+00
  5000001  2    1    2    0    0 +4.1993664214e+01 -6.2188556298e+00 +8.0559579104e+01 9.9957947141e+02 9.9542309190e+02 0.0000e+00 0.0000e+00
  5000521  1    3    3    0    0 +2.5004714989e+02 -6.8754408411e+01 +4.7949185911e+02 5.4521847804e+02 1.0000000000e+01 0.0000e+00 -1.0000e+00
 -5000521  1    3    3    0    0 -2.0805348568e+02 +6.2535552782e+01 -3.9893228001e+02 4.5436099337e+02 1.0000000000e+01 0.0000e+00 1.0000e+00
       21  1    1    2  502  501 -4.1993664214e+01 +6.2188556298e+00 -1.0210656161e+02 1.1057979889e+02 0.0000000000e+00 0.0000e+00 1.0000e+00
<mgrwt>
<rscale>  1 0.99632789E+03</rscale>
<asrwt>0</asrwt>
<pdfrwt beam="1">  1        2 0.87054327E-01 0.99632789E+03</pdfrwt>
<pdfrwt beam="2">  1       -2 0.83739406E-01 0.99632789E+03</pdfrwt>
<totfact> 0.66214242E+01</totfact>
</mgrwt>
</event>
<event>
 6      1 +3.0741590e+01 1.04050800e+03 7.81860800e-03 9.26519900e-02
       -2 -1    0    0    0  501 -0.0000000000e+00 +0.0000000000e+00 +2.7023372522e+02 2.7023372522e+02 0.0000000000e+00 0.0000e+00 -1.0000e+00
        2 -1    0    0  502    0 +0.0000000000e+00 -0.0000000000e+00 -1.5518341868e+03 1.5518341868e+03 0.0000000000e+00 0.0000e+00 1.0000e+00
  5000001  2    1    2    0    0 -2.4645398508e+02 -5.5750160331e+01 -1.0698423736e+03 1.4923875593e+03 1.0093613207e+03 0.0000e+00 0.0000e+00
  5000521  1    3    3    0    0 -3.0392392087e+02 +1.7539042254e+02 +4.3573639046e+01 3.5373749026e+02 1.0000000000e+01 0.0000e+00 -1.0000e+00
 -5000521  1    3    3    0    0 +5.7469935795e+01 -2.3114058287e+02 -1.1134160126e+03 1.1386500691e+03 1.0000000000e+01 0.0000e+00 1.0000e+00
       21  1    1    2  502  501 +2.4645398508e+02 +5.5750160331e+01 -2.1175808802e+02 3.2968035274e+02 0.0000000000e+00 0.0000e+00 -1.0000e+00
<mgrwt>
<rscale>  1 0.10405085E+04</rscale>
<asrwt>0</asrwt>
<pdfrwt beam="1">  1        2 0.23874372E+00 0.10405085E+04</pdfrwt>
<pdfrwt beam="2">  1       -2 0.41574419E-01 0.10405085E+04</pdfrwt>
<totfact> 0.64817061E+01</totfact>
</mgrwt>
</event>
<event>
 6      1 +3.0741590e+01 9.98856600e+02 7.81860800e-03 9.30980000e-02
       21 -1    0    0  501  502 +0.0000000000e+00 +0.0000000000e+00 +2.5072339620e+03 2.5072339620e+03 0.0000000000e+00 0.0000e+00 -1.0000e+00
       -5 -1    0    0    0  501 -0.0000000000e+00 -0.0000000000e+00 -1.0828900159e+02 1.0828900159e+02 0.0000000000e+00 0.0000e+00 1.0000e+00
  5000001  2    1    2    0    0 -7.7647066829e+00 +2.5808767809e+01 +2.2174262244e+03 2.4320142861e+03 9.9849288643e+02 0.0000e+00 0.0000e+00
  5000521  1    3    3    0    0 +9.9607671134e+01 -3.9082768056e+02 +1.7530662741e+03 1.7988911377e+03 1.0000000000e+01 0.0000e+00 -1.0000e+00
 -5000521  1    3    3    0    0 -1.0737237782e+02 +4.1663644837e+02 +4.6435995031e+02 6.3312314843e+02 1.0000000000e+01 0.0000e+00 1.0000e+00
       -5  1    1    2    0  502 +7.7647066829e+00 -2.5808767809e+01 +1.8151873601e+02 1.8350867742e+02 0.0000000000e+00 0.0000e+00 1.0000e+00
<mgrwt>
<rscale>  1 0.99885656E+03</rscale>
<asrwt>0</asrwt>
<pdfrwt beam="1">  1       21 0.38572826E+00 0.99885656E+03</pdfrwt>
<pdfrwt beam="2">  1       -5 0.16659848E-01 0.99885656E+03</pdfrwt>
<totfact> 0.76004276E+00</totfact>
</mgrwt>
</event>
<event>
 6      1 +3.0741590e+01 1.00810900e+03 7.81860800e-03 9.29969600e-02
       -2 -1    0    0    0  501 -0.0000000000e+00 +0.0000000000e+00 +4.4490332854e+02 4.4490332854e+02 0.0000000000e+00 0.0000e+00 -1.0000e+00
        2 -1    0    0  502    0 +0.0000000000e+00 -0.0000000000e+00 -7.7648442284e+02 7.7648442284e+02 0.0000000000e+00 0.0000e+00 1.0000e+00
  5000001  2    1    2    0    0 +9.5680608074e+01 +7.7356453429e+01 -3.9528367492e+02 1.0828351678e+03 1.0005718451e+03 0.0000e+00 0.0000e+00
  5000521  1    3    3    0    0 +1.7455244501e+02 -3.1433885285e+02 +1.6408323741e+02 3.9534893356e+02 1.0000000000e+01 0.0000e+00 -1.0000e+00
 -5000521  1    3    3    0    0 -7.8871836934e+01 +3.9169530628e+02 -5.5936691233e+02 6.8748623421e+02 1.0000000000e+01 0.0000e+00 1.0000e+00
       21  1    1    2  502  501 -9.5680608074e+01 -7.7356453429e+01 +6.3702580614e+01 1.3855258361e+02 0.0000000000e+00 0.0000e+00 -1.0000e+00
<mgrwt>
<rscale>  1 0.10081085E+04</rscale>
<asrwt>0</asrwt>
<pdfrwt beam="1">  1        2 0.11945914E+00 0.10081085E+04</pdfrwt>
<pdfrwt beam="2">  1       -2 0.68446667E-01 0.10081085E+04</pdfrwt>
<totfact> 0.69746390E+01</totfact>
</mgrwt>
</event>
<event>
 6      1 +3.0741590e+01 9.98409400e+02 7.81860800e-03 9.31029100e-02
        1 -1    0    0  502    0 +0.0000000000e+00 +0.0000000000e+00 +1.6549898241e+03 1.6549898241e+03 0.0000000000e+00 0.0000e+00 1.0000e+00
       -1 -1    0    0    0  501 -0.0000000000e+00 -0.0000000000e+00 -2.6991589377e+02 2.6991589377e+02 0.0000000000e+00 0.0000e+00 -1.0000e+00
  5000001  2    1    2    0    0 +6.2938438583e+01 -1.8904485785e+01 +6.5995094763e+02 1.1968109667e+03 9.9624425223e+02 0.0000e+00 0.0000e+00
  5000521  1    3    3    0    0 +1.2567698630e+02 -2.4835757478e+02 +8.4854033083e+02 8.9308279732e+02 1.0000000000e+01 0.0000e+00 1.0000e+00
 -5000521  1    3    3    0    0 -6.2738547719e+01 +2.2945308900e+02 -1.8858938319e+02 3.0372816938e+02 1.0000000000e+01 0.0000e+00 -1.0000e+00
       21  1    1    2  502  501 -6.2938438583e+01 +1.8904485785e+01 +7.2512298269e+02 7.2809475115e+02 0.0000000000e+00 0.0000e+00 1.0000e+00
<mgrwt>
<rscale>  1 0.99840935E+03</rscale>
<asrwt>0</asrwt>
<pdfrwt beam="1">  1        1 0.25461381E+00 0.99840935E+03</pdfrwt>
<pdfrwt beam="2">  1       -1 0.41525523E-01 0.99840935E+03</pdfrwt>
<totfact> 0.29275923E+01</totfact>
</mgrwt>
</event>
<event>
 6      1 +3.0741590e+01 9.97500300e+02 7.81860800e-03 9.31129100e-02
       -2 -1    0    0    0  501 -0.0000000000e+00 +0.0000000000e+00 +1.0229308508e+02 1.0229308508e+02 0.0000000000e+00 0.0000e+00 -1.0000e+00
        2 -1    0    0  502    0 +0.0000000000e+00 -0.0000000000e+00 -2.5561740950e+03 2.5561740950e+03 0.0000000000e+00 0.0000e+00 1.0000e+00
  5000001  2    1    2    0    0 +2.4604953616e+01 -1.3986742961e+00 -2.4069541186e+03 2.6054625279e+03 9.9719581570e+02 0.0000e+00 0.0000e+00
  5000521  1    3    3    0    0 -2.7654332866e+02 +1.3062872499e+02 -2.1902671465e+03 2.2115402437e+03 1.0000000000e+01 0.0000e+00 1.0000e+00
 -5000521  1    3    3    0    0 +3.0114828227e+02 -1.3202739929e+02 -2.1668697214e+02 3.9392228418e+02 1.0000000000e+01 0.0000e+00 -1.0000e+00
       21  1    1    2  502  501 -2.4604953616e+01 +1.3986742961e+00 -4.6926891318e+01 5.3004652258e+01 0.0000000000e+00 0.0000e+00 -1.0000e+00
<mgrwt>
<rscale>  1 0.99750030E+03</rscale>
<asrwt>0</asrwt>
<pdfrwt beam="1">  1        2 0.39325750E+00 0.99750030E+03</pdfrwt>
<pdfrwt beam="2">  1       -2 0.15737400E-01 0.99750030E+03</pdfrwt>
<totfact> 0.10574797E+02</totfact>
</mgrwt>
</event>
<event>
 6      1 +3.0741590e+01 1.02217700e+03 7.81860800e-03 9.28455000e-02
        2 -1    0    0  502    0 +0.0000000000e+00 +0.0000000000e+00 +3.5280801093e+03 3.5280801093e+03 0.0000000000e+00 0.0000e+00 -1.0000e+00
       -2 -1    0    0    0  501 -0.0000000000e+00 -0.0000000000e+00 -8.9171675159e+01 8.9171675159e+01 0.0000000000e+00 0.0000e+00 1.0000e+00
  5000001  2    1    2    0    0 -9.7759686300e+01 +1.7185802294e+01 +3.1595572365e+03 3.3207903204e+03 1.0173466042e+03 0.0000e+00 0.0000e+00
  5000521  1    3    3    0    0 +8.0730923952e+01 -1.1598152777e+02 +3.0812700322e+03 3.0845249566e+03 1.0000000000e+01 0.0000e+00 -1.0000e+00
 -5000521  1    3    3    0    0 -1.7849061025e+02 +1.3316733007e+02 +7.8287204324e+01 2.3626536375e+02 1.0000000000e+01 0.0000e+00 1.0000e+00
       21  1    1    2  502  501 +9.7759686300e+01 -1.7185802294e+01 +2.7935119767e+02 2.9646146411e+02 0.0000000000e+00 0.0000e+00 -1.0000e+00
<mgrwt>
<rscale>  1 0.10221773E+04</rscale>
<asrwt>0</asrwt>
<pdfrwt beam="1">  1        2 0.54278145E+00 0.10221773E+04</pdfrwt>
<pdfrwt beam="2">  1       -2 0.13718722E-01 0.10221773E+04</pdfrwt>
<totfact> 0.32806719E+01</totfact>
</mgrwt>
</event>
<event>
 6      1 +3.0741590e+01 1.00149200e+03 7.81860800e-03 9.30690900e-02
        3 -1    0    0  502    0 -0.0000000000e+00 +0.0000000000e+00 +3.9212702649e+02 3.9212702649e+02 0.0000000000e+00 0.0000e+00 1.0000e+00
       21 -1    0    0  501  502 +0.0000000000e+00 -0.0000000000e+00 -8.3716395626e+02 8.3716395626e+02 0.0000000000e+00 0.0000e+00 -1.0000e+00
  5000001  2    1    2    0    0 -1.4547532088e+01 +1.6845645942e+01 -2.4898416976e+02 1.0319788159e+03 1.0012451015e+03 0.0000e+00 0.0000e+00
  5000521  1    3    3    0    0 -2.1545612978e+02 -3.1084973987e+02 -4.5821272714e+02 5.9422875053e+02 1.0000000000e+01 0.0000e+00 -1.0000e+00
 -5000521  1    3    3    0    0 +2.0090859769e+02 +3.2769538581e+02 +2.0922855739e+02 4.3775006537e+02 1.0000000000e+01 0.0000e+00 1.0000e+00
        3  1    1    2  501    0 +1.4547532088e+01 -1.6845645942e+01 -1.9605276002e+02 1.9731216685e+02 0.0000000000e+00 0.0000e+00 1.0000e+00
<mgrwt>
<rscale>  1 0.10014925E+04</rscale>
<asrwt>0</asrwt>
<pdfrwt beam="1">  1       21 0.12879445E+00 0.10014925E+04</pdfrwt>
<pdfrwt beam="2">  1        3 0.60327236E-01 0.10014925E+04</pdfrwt>
<totfact> 0.50285217E+01</totfact>
</mgrwt>
</event>
<event>
 6      1 +3.0741590e+01 1.04071000e+03 7.81860800e-03 9.26498800e-02
       -3 -1    0    0    0  501 -0.0000000000e+00 +0.0000000000e+00 +5.4896473930e+02 5.4896473930e+02 0.0000000000e+00 0.0000e+00 -1.0000e+00
        3 -1    0    0  502    0 +0.0000000000e+00 -0.0000000000e+00 -1.1299368544e+03 1.1299368544e+03 0.0000000000e+00 0.0000e+00 1.0000e+00
  5000001  2    1    2    0    0 -2.0204281014e+02 +2.0462145775e+02 -8.0390728378e+02 1.3150454030e+03 1.0001931079e+03 0.0000e+00 0.0000e+00
  5000521  1    3    3    0    0 +4.0254233758e+02 +1.5096619965e+02 -2.7975465342e+02 5.1302416424e+02 1.0000000000e+01 0.0000e+00 -1.0000e+00
 -5000521  1    3    3    0    0 -6.0458514772e+02 +5.3655258104e+01 -5.2415263036e+02 8.0202123880e+02 1.0000000000e+01 0.0000e+00 1.0000e+00
       21  1    1    2  502  501 +2.0204281014e+02 -2.0462145775e+02 +2.2293516863e+02 3.6385619071e+02 0.0000000000e+00 0.0000e+00 -1.0000e+00
<mgrwt>
<rscale>  1 0.10407101E+04</rscale>
<asrwt>0</asrwt>
<pdfrwt beam="1">  1        3 0.17383644E+00 0.10407101E+04</pdfrwt>
<pdfrwt beam="2">  1       -3 0.84456115E-01 0.10407101E+04</pdfrwt>
<totfact> 0.72169207E-01</totfact>
</mgrwt>
</event>
<event>
 6      1 +3.0741590e+01 1.01894100e+03 7.81860800e-03 9.28801200e-02
       -1 -1    0    0    0  501 -0.0000000000e+00 +0.0000000000e+00 +2.7633472731e+02 2.7633472731e+02 0.0000000000e+00 0.0000e+00 -1.0000e+00
        1 -1    0    0  502    0 +0.0000000000e+00 -0.0000000000e+00 -1.3549693286e+03 1.3549693286e+03 0.0000000000e+00 0.0000e+00 1.0000e+00
  5000001  2    1    2    0    0 +1.0142910336e+02 +1.1442226616e+02 -1.0709077509e+03 1.4782027097e+03 1.0074023635e+03 0.0000e+00 0.0000e+00
  5000521  1    3    3    0    0 +2.7307906686e+02 +4.8796105980e+02 -3.8671718231e+02 6.7994731541e+02 1.0000000000e+01 0.0000e+00 -1.0000e+00
 -5000521  1    3    3    0    0 -1.7164996350e+02 -3.7353879364e+02 -6.8419056857e+02 7.9825539425e+02 1.0000000000e+01 0.0000e+00 1.0000e+00
       21  1    1    2  502  501 -1.0142910336e+02 -1.1442226616e+02 -7.7268503968e+00 1.5310134623e+02 0.0000000000e+00 0.0000e+00 -1.0000e+00
<mgrwt>
<rscale>  1 0.10189405E+04</rscale>
<asrwt>0</asrwt>
<pdfrwt beam="1">  1        1 0.20845681E+00 0.10189405E+04</pdfrwt>
<pdfrwt beam="2">  1       -1 0.42513036E-01 0.10189405E+04</pdfrwt>
<totfact> 0.45102875E+01</totfact>
</mgrwt>
</event>
<event>
 6      1 +3.0741590e+01 1.00109400e+03 7.81860800e-03 9.30734500e-02
        2 -1    0    0  502    0 +0.0000000000e+00 +0.0000000000e+00 +8.2591350316e+02 8.2591350316e+02 0.0000000000e+00 0.0000e+00 -1.0000e+00
       -2 -1    0    0    0  501 -0.0000000000e+00 -0.0000000000e+00 -3.4936762025e+02 3.4936762025e+02 0.0000000000e+00 0.0000e+00 1.0000e+00
  5000001  2    1    2    0    0 -4.7395777434e+01 -1.9354211713e+01 +3.8930214507e+02 1.0741257231e+03 9.9978445854e+02 0.0000e+00 0.0000e+00
  5000521  1    3    3    0    0 -2.3554638024e+02 +1.0270034323e+02 +6.6827315792e+02 7.1604362391e+02 1.0000000000e+01 0.0000e+00 -1.0000e+00
 -5000521  1    3    3    0    0 +1.8815060281e+02 -1.2205455494e+02 -2.7897101285e+02 3.5808209915e+02 1.0000000000e+01 0.0000e+00 1.0000e+00
       21  1    1    2  502  501 +4.7395777434e+01 +1.9354211713e+01 +8.7243737832e+01 1.0115540035e+02 0.0000000000e+00 0.0000e+00 -1.0000e+00
<mgrwt>
<rscale>  1 0.10010944E+04</rscale>
<asrwt>0</asrwt>
<pdfrwt beam="1">  1        2 0.12706362E+00 0.10010944E+04</pdfrwt>
<pdfrwt beam="2">  1       -2 0.53748865E-01 0.10010944E+04</pdfrwt>
<totfact> 0.10740911E+02</totfact>
</mgrwt>
</event>
<event>
 6      1 +3.0741590e+01 9.98743100e+02 7.81860800e-03 9.30992400e-02
       21 -1    0    0  501  502 +0.0000000000e+00 +0.0000000000e+00 +3.4889910965e+02 3.4889910965e+02 0.0000000000e+00 0.0000e+00 -1.0000e+00
        2 -1    0    0  502    0 -0.0000000000e+00 -0.0000000000e+00 -9.1538782472e+02 9.1538782472e+02 0.0000000000e+00 0.0000e+00 1.0000e+00
  5000001  2    1    2    0    0 +9.8888433921e+01 -1.7004139498e+01 -4.1268375597e+02 1.0806459026e+03 9.9368990190e+02 0.0000e+00 0.0000e+00
  5000521  1    3    3    0    0 -4.3015122095e+02 -1.3291143662e+02 -1.2521651071e+02 4.6741276985e+02 1.0000000000e+01 0.0000e+00 -1.0000e+00
 -5000521  1    3    3    0    0 +5.2903965487e+02 +1.1590729712e+02 -2.8746724526e+02 6.1323313270e+02 1.0000000000e+01 0.0000e+00 1.0000e+00
        2  1    1    2  501    0 -9.8888433921e+01 +1.7004139498e+01 -1.5380495910e+02 1.8364103182e+02 0.0000000000e+00 0.0000e+00 1.0000e+00
<mgrwt>
<rscale>  1 0.99874305E+03</rscale>
<asrwt>0</asrwt>
<pdfrwt beam="1">  1       21 0.53676786E-01 0.99874305E+03</pdfrwt>
<pdfrwt beam="2">  1        2 0.14082890E+00 0.99874305E+03</pdfrwt>
<totfact> 0.10349788E+03</totfact>
</mgrwt>
</event>
<event>
 6      1 +3.0741590e+01 1.00030900e+03 7.81860800e-03 9.30820600e-02
        2 -1    0    0  502    0 +0.0000000000e+00 +0.0000000000e+00 +6.0708160483e+02 6.0708160483e+02 0.0000000000e+00 0.0000e+00 1.0000e+00
       -2 -1    0    0    0  501 -0.0000000000e+00 -0.0000000000e+00 -4.9368052737e+02 4.9368052737e+02 0.0000000000e+00 0.0000e+00 -1.0000e+00
  5000001  2    1    2    0    0 +7.5807818427e+01 -4.9593250825e+01 +7.7459426621e+01 1.0033038430e+03 9.9619893737e+02 0.0000e+00 0.0000e+00
  5000521  1    3    3    0    0 -2.3376508841e+02 -2.8316301115e+02 +3.6699052915e+02 5.1923930507e+02 1.0000000000e+01 0.0000e+00 1.0000e+00
 -5000521  1    3    3    0    0 +3.0957290683e+02 +2.3356976033e+02 -2.8953110252e+02 4.8406453796e+02 1.0000000000e+01 0.0000e+00 -1.0000e+00
       21  1    1    2  502  501 -7.5807818427e+01 +4.9593250825e+01 +3.5941650835e+01 9.7458289164e+01 0.0000000000e+00 0.0000e+00 -1.0000e+00
<mgrwt>
<rscale>  1 0.10003093E+04</rscale>
<asrwt>0</asrwt>
<pdfrwt beam="1">  1        2 0.93397170E-01 0.10003093E+04</pdfrwt>
<pdfrwt beam="2">  1       -2 0.75950851E-01 0.10003093E+04</pdfrwt>
<totfact> 0.75776862E+01</totfact>
</mgrwt>
</event>
<event>
 6      1 +3.0741590e+01 1.03254300e+03 7.81860800e-03 9.27355500e-02
        2 -1    0    0  502    0 -0.0000000000e+00 +0.0000000000e+00 +2.8967061604e+03 2.8967061604e+03 0.0000000000e+00 0.0000e+00 -1.0000e+00
       21 -1    0    0  501  502 +0.0000000000e+00 -0.0000000000e+00 -2.1565058025e+02 2.1565058025e+02 0.0000000000e+00 0.0000e+00 -1.0000e+00
  5000001  2    1    2    0    0 -2.3413921874e+00 +2.5245354442e+02 +2.6665437861e+03 2.8594756097e+03 1.0012026392e+03 0.0000e+00 0.0000e+00
  5000521  1    3    3    0    0 +4.5646971165e+02 +1.1649626618e+02 +7.6380667576e+02 8.9746120564e+02 1.0000000000e+01 0.0000e+00 1.0000e+00
 -5000521  1    3    3    0    0 -4.5881110384e+02 +1.3595727824e+02 +1.9027371104e+03 1.9620144041e+03 1.0000000000e+01 0.0000e+00 -1.0000e+00
        2  1    1    2  501    0 +2.3413921874e+00 -2.5245354442e+02 +1.4511793963e+01 2.5288113091e+02 0.0000000000e+00 0.0000e+00 -1.0000e+00
<mgrwt>
<rscale>  1 0.10325430E+04</rscale>
<asrwt>0</asrwt>
<pdfrwt beam="1">  1       21 0.33177014E-01 0.10325430E+04</pdfrwt>
<pdfrwt beam="2">  1        2 0.44564707E+00 0.10325430E+04</pdfrwt>
<totfact> 0.20494931E+02</totfact>
</mgrwt>
</event>
<event>
 6      1 +3.0741590e+01 1.00141000e+03 7.81860800e-03 9.30700000e-02
       -2 -1    0    0    0  501 -0.0000000000e+00 +0.0000000000e+00 +1.2997824605e+03 1.2997824605e+03 0.0000000000e+00 0.0000e+00 -1.0000e+00
        2 -1    0    0  502    0 +0.0000000000e+00 -0.0000000000e+00 -2.2388836424e+02 2.2388836424e+02 0.0000000000e+00 0.0000e+00 1.0000e+00
  5000001  2    1    2    0    0 -2.5707189087e+01 +3.5521518623e+01 +1.0874767333e+03 1.4783189192e+03 1.0004491710e+03 0.0000e+00 0.0000e+00
  5000521  1    3    3    0    0 -1.1242407323e+02 -8.1570471306e+01 -1.6582117856e+02 2.1654001314e+02 1.0000000000e+01 0.0000e+00 1.0000e+00
 -5000521  1    3    3    0    0 +8.6716884148e+01 +1.1709198993e+02 +1.2532979118e+03 1.2617789061e+03 1.0000000000e+01 0.0000e+00 -1.0000e+00
       21  1    1    2  502  501 +2.5707189087e+01 -3.5521518623e+01 -1.1582636976e+01 4.5351905532e+01 0.0000000000e+00 0.0000e+00 1.0000e+00
<mgrwt>
<rscale>  1 0.10014096E+04</rscale>
<asrwt>0</asrwt>
<pdfrwt beam="1">  1        2 0.34444364E-01 0.10014096E+04</pdfrwt>
<pdfrwt beam="2">  1       -2 0.19996653E+00 0.10014096E+04</pdfrwt>
<totfact> 0.20245670E+01</totfact>
</mgrwt>
</event>
<event>
 6      1 +3.0741590e+01 1.01630700e+03 7.81860800e-03 9.29083800e-02
       -2 -1    0    0    0  501 -0.0000000000e+00 +0.0000000000e+00 +1.2803984698e+03 1.2803984698e+03 0.0000000000e+00 0.0000e+00 -1.0000e+00
        2 -1    0    0  502    0 +0.0000000000e+00 -0.0000000000e+00 -3.2331287939e+02 3.2331287939e+02 0.0000000000e+00 0.0000e+00 1.0000e+00
  5000001  2    1    2    0    0 +1.8139141233e+02 -2.9678761502e+01 +5.4664229112e+02 1.1539921309e+03 9.9954808309e+02 0.0000e+00 0.0000e+00
  5000521  1    3    3    0    0 -2.1965028724e+02 +3.4539651210e+01 +6.8856390920e+02 7.2364320852e+02 1.0000000000e+01 0.0000e+00 -1.0000e+00
 -5000521  1    3    3    0    0 +4.0104169957e+02 -6.4218412712e+01 -1.4192161807e+02 4.3034892239e+02 1.0000000000e+01 0.0000e+00 1.0000e+00
       21  1    1    2  502  501 -1.8139141233e+02 +2.9678761502e+01 +4.1044329930e+02 4.4971921828e+02 0.0000000000e+00 0.0000e+00 -1.0000e+00
<mgrwt>
<rscale>  1 0.10163071E+04</rscale>
<asrwt>0</asrwt>
<pdfrwt beam="1">  1        2 0.49740444E-01 0.10163071E+04</pdfrwt>
<pdfrwt beam="2">  1       -2 0.19698438E+00 0.10163071E+04</pdfrwt>
<totfact> 0.14008001E+01</totfact>
</mgrwt>
</event>
<event>
 6      1 +3.0741590e+01 9.96128500e+02 7.81860800e-03 9.31280100e-02
       -1 -1    0    0    0  501 -0.0000000000e+00 +0.0000000000e+00 +1.2828871090e+03 1.2828871090e+03 0.0000000000e+00 0.0000e+00 -1.0000e+00
        1 -1    0    0  502    0 +0.0000000000e+00 -0.0000000000e+00 -2.1302810659e+02 2.1302810659e+02 0.0000000000e+00 0.0000e+00 1.0000e+00
  5000001  2    1    2    0    0 -2.3360869584e+01 -2.6340251176e+01 +1.0683152145e+03 1.4606742970e+03 9.9550613531e+02 0.0000e+00 0.0000e+00
  5000521  1    3    3    0    0 +3.8580508773e+02 +2.6730052630e+02 +3.6047100422e+02 5.9189059966e+02 1.0000000000e+01 0.0000e+00 1.0000e+00
 -5000521  1    3    3    0    0 -4.0916595731e+02 -2.9364077748e+02 +7.0784421026e+02 8.6878369737e+02 1.0000000000e+01 0.0000e+00 -1.0000e+00
       21  1    1    2  502  501 +2.3360869584e+01 +2.6340251176e+01 +1.5437879305e+00 3.5240918559e+01 0.0000000000e+00 0.0000e+00 1.0000e+00
<mgrwt>
<rscale>  1 0.99612851E+03</rscale>
<asrwt>0</asrwt>
<pdfrwt beam="1">  1        1 0.32773556E-01 0.99612851E+03</pdfrwt>
<pdfrwt beam="2">  1       -1 0.19736724E+00 0.99612851E+03</pdfrwt>
<totfact> 0.21605046E+01</totfact>
</mgrwt>
</event>
<event>
 6      1 +3.0741590e+01 9.99094500e+02 7.81860800e-03 9.30953800e-02
        2 -1    0    0  502    0 +0.0000000000e+00 +0.0000000000e+00 +1.1221769028e+03 1.1221769028e+03 0.0000000000e+00 0.0000e+00 1.0000e+00
       -2 -1    0    0    0  501 -0.0000000000e+00 -0.0000000000e+00 -2.7059777228e+02 2.7059777228e+02 0.0000000000e+00 0.0000e+00 -1.0000e+00
  5000001  2    1    2    0    0 -5.0496808591e+01 -1.5132615031e+01 +8.8131045300e+02 1.3322529827e+03 9.9770284741e+02 0.0000e+00 0.0000e+00
  5000521  1    3    3    0    0 +1.8004863253e+02 -1.1871812518e+02 +1.0208100283e+03 1.0433909225e+03 1.0000000000e+01 0.0000e+00 1.0000e+00
 -5000521  1    3    3    0    0 -2.3054544113e+02 +1.0358551015e+02 -1.3949957528e+02 2.8886206023e+02 1.0000000000e+01 0.0000e+00 -1.0000e+00
       21  1    1    2  502  501 +5.0496808591e+01 +1.5132615031e+01 -2.9731322432e+01 6.0521692385e+01 0.0000000000e+00 0.0000e+00 1.0000e+00
<mgrwt>
<rscale>  1 0.99909454E+03</rscale>
<asrwt>0</asrwt>
<pdfrwt beam="1">  1        2 0.17264260E+00 0.99909454E+03</pdfrwt>
<pdfrwt beam="2">  1       -2 0.41630427E-01 0.99909454E+03</pdfrwt>
<totfact> 0.11513852E+02</totfact>
</mgrwt>
</event>
<event>
 6      1 +3.0741590e+01 9.99728100e+02 7.81860800e-03 9.30884300e-02
        1 -1    0    0  502    0 +0.0000000000e+00 +0.0000000000e+00 +6.1729304433e+02 6.1729304433e+02 0.0000000000e+00 0.0000e+00 1.0000e+00
       -1 -1    0    0    0  501 -0.0000000000e+00 -0.0000000000e+00 -4.8917395494e+02 4.8917395494e+02 0.0000000000e+00 0.0000e+00 -1.0000e+00
  5000001  2    1    2    0    0 -1.8039337708e+01 -6.2532654599e+01 +4.4786042721e+01 1.0007307838e+03 9.9760741848e+02 0.0000e+00 0.0000e+00
  5000521  1    3    3    0    0 -3.4693239975e+02 -3.4896482920e+02 +2.0884254103e+02 5.3465292383e+02 1.0000000000e+01 0.0000e+00 1.0000e+00
 -5000521  1    3    3    0    0 +3.2889306204e+02 +2.8643217460e+02 -1.6405649831e+02 4.6607785996e+02 1.0000000000e+01 0.0000e+00 -1.0000e+00
       21  1    1    2  502  501 +1.8039337708e+01 +6.2532654599e+01 +8.3333046667e+01 1.0573621548e+02 0.0000000000e+00 0.0000e+00 1.0000e+00
<mgrwt>
<rscale>  1 0.99972812E+03</rscale>
<asrwt>0</asrwt>
<pdfrwt beam="1">  1        1 0.94968161E-01 0.99972812E+03</pdfrwt>
<pdfrwt beam="2">  1       -1 0.75257531E-01 0.99972812E+03</pdfrwt>
<totfact> 0.58503631E+01</totfact>
</mgrwt>
</event>
<event>
 6      1 +3.0741590e+01 1.00156800e+03 7.81860800e-03 9.30682700e-02
       -2 -1    0    0    0  501 -0.0000000000e+00 +0.0000000000e+00 +1.4634615412e+02 1.4634615412e+02 0.0000000000e+00 0.0000e+00 1.0000e+00
        2 -1    0    0  502    0 +0.0000000000e+00 -0.0000000000e+00 -2.2352018147e+03 2.2352018147e+03 0.0000000000e+00 0.0000e+00 -1.0000e+00
  5000001  2    1    2    0    0 +4.0817553624e+01 -7.1109182982e+01 -1.6128465003e+03 1.8985290155e+03 9.9820639181e+02 0.0000e+00 0.0000e+00
  5000521  1    3    3    0    0 -1.7350521460e+02 +9.1470555839e+01 -1.6174143788e+03 1.6292943856e+03 1.0000000000e+01 0.0000e+00 -1.0000e+00
 -5000521  1    3    3    0    0 +2.1432276823e+02 -1.6257973882e+02 +4.5678784922e+00 2.6923462996e+02 1.0000000000e+01 0.0000e+00 1.0000e+00
       21  1    1    2  502  501 -4.0817553624e+01 +7.1109182982e+01 -4.7600916023e+02 4.8301895327e+02 0.0000000000e+00 0.0000e+00 1.0000e+00
<mgrwt>
<rscale>  1 0.10015681E+04</rscale>
<asrwt>0</asrwt>
<pdfrwt beam="1">  1        2 0.34387719E+00 0.10015681E+04</pdfrwt>
<pdfrwt beam="2">  1       -2 0.22514793E-01 0.10015681E+04</pdfrwt>
<totfact> 0.85941379E+01</totfact>
</mgrwt>
</event>
<event>
 6      1 +3.0741590e+01 1.03338800e+03 7.81860800e-03 9.27266500e-02
       -2 -1    0    0    0  501 -0.0000000000e+00 +0.0000000000e+00 +6.0015007906e+02 6.0015007906e+02 0.0000000000e+00 0.0000e+00 1.0000e+00
        2 -1    0    0  502    0 +0.0000000000e+00 -0.0000000000e+00 -5.7037044353e+02 5.7037044353e+02 0.0000000000e+00 0.0000e+00 -1.0000e+00
  5000001  2    1    2    0    0 +1.3665527211e+02 -5.1693754451e+00 +2.5979039751e+01 1.0337147100e+03 1.0242996657e+03 0.0000e+00 0.0000e+00
  5000521  1    3    3    0    0 -3.1113068874e+02 +3.1671717976e+02 +1.4933944491e+02 4.6852358237e+02 1.0000000000e+01 0.0000e+00 1.0000e+00
 -5000521  1    3    3    0    0 +4.4778596085e+02 -3.2188655520e+02 -1.2336040516e+02 5.6519112760e+02 1.0000000000e+01 0.0000e+00 -1.0000e+00
       21  1    1    2  502  501 -1.3665527211e+02 +5.1693754451e+00 +3.8005957788e+00 1.3680581262e+02 0.0000000000e+00 0.0000e+00 1.0000e+00
<mgrwt>
<rscale>  1 0.10333882E+04</rscale>
<asrwt>0</asrwt>
<pdfrwt beam="1">  1        2 0.87749299E-01 0.10333882E+04</pdfrwt>
<pdfrwt beam="2">  1       -2 0.92330782E-01 0.10333882E+04</pdfrwt>
<totfact> 0.52267120E+01</totfact>
</mgrwt>
</event>
<event>
 6      1 +3.0741590e+01 1.01810200e+03 7.81860800e-03 9.28891100e-02
       -1 -1    0    0    0  501 -0.0000000000e+00 +0.0000000000e+00 +1.5927502741e+02 1.5927502741e+02 0.0000000000e+00 0.0000e+00 1.0000e+00
        1 -1    0    0  502    0 +0.0000000000e+00 -0.0000000000e+00 -1.7357379400e+03 1.7357379400e+03 0.0000000000e+00 0.0000e+00 -1.0000e+00
  5000001  2    1    2    0    0 -1.4408766201e+01 -2.4211396740e+01 -1.4944037285e+03 1.8082517205e+03 1.0177121286e+03 0.0000e+00 0.0000e+00
  5000521  1    3    3    0    0 +4.2513838245e+01 +1.7460571969e+02 -1.5756044737e+03 1.5858512041e+03 1.0000000000e+01 0.0000e+00 -1.0000e+00
 -5000521  1    3    3    0    0 -5.6922604447e+01 -1.9881711643e+02 +8.1200745222e+01 2.2240051643e+02 1.0000000000e+01 0.0000e+00 1.0000e+00
       21  1    1    2  502  501 +1.4408766201e+01 +2.4211396740e+01 -8.2059184078e+01 8.6761246920e+01 0.0000000000e+00 0.0000e+00 -1.0000e+00
<mgrwt>
<rscale>  1 0.10181020E+04</rscale>
<asrwt>0</asrwt>
<pdfrwt beam="1">  1        1 0.26703659E+00 0.10181020E+04</pdfrwt>
<pdfrwt beam="2">  1       -1 0.24503852E-01 0.10181020E+04</pdfrwt>
<totfact> 0.65539909E+01</totfact>
</mgrwt>
</event>
<event>
 6      1 +3.0741590e+01 1.00091800e+03 7.81860800e-03 9.30753900e-02
        1 -1    0    0  502    0 -0.0000000000e+00 +0.0000000000e+00 +2.7646026425e+03 2.7646026425e+03 0.0000000000e+00 0.0000e+00 -1.0000e+00
       21 -1    0    0  501  502 +0.0000000000e+00 -0.0000000000e+00 -9.6865951159e+01 9.6865951159e+01 0.0000000000e+00 0.0000e+00 1.0000e+00
  5000001  2    1    2    0    0 +2.1676677078e+01 +1.3792049955e+01 +2.6413691138e+03 2.8246535408e+03 1.0005881926e+03 0.0000e+00 0.0000e+00
  5000521  1    3    3    0    0 -2.5276838312e+02 +2.5078273448e+02 +2.2970781514e+03 2.3245326130e+03 1.0000000000e+01 0.0000e+00 -1.0000e+00
 -5000521  1    3    3    0    0 +2.7444506019e+02 -2.3699068452e+02 +3.4429096244e+02 5.0012092781e+02 1.0000000000e+01 0.0000e+00 1.0000e+00
        1  1    1    2  501    0 -2.1676677078e+01 -1.3792049955e+01 +2.6367577526e+01 3.6815052841e+01 0.0000000000e+00 0.0000e+00 -1.0000e+00
<mgrwt>
<rscale>  1 0.10009180E+04</rscale>
<asrwt>0</asrwt>
<pdfrwt beam="1">  1       21 0.14902456E-01 0.10009180E+04</pdfrwt>
<pdfrwt beam="2">  1        1 0.42532342E+00 0.10009180E+04</pdfrwt>
<totfact> 0.37897696E+02</totfact>
</mgrwt>
</event>
<event>
 6      1 +3.0741590e+01 9.97284600e+02 7.81860800e-03 9.31152800e-02
       -2 -1    0    0    0  501 -0.0000000000e+00 +0.0000000000e+00 +2.5780856048e+02 2.5780856048e+02 0.0000000000e+00 0.0000e+00 -1.0000e+00
        2 -1    0    0  502    0 +0.0000000000e+00 -0.0000000000e+00 -1.3050820161e+03 1.3050820161e+03 0.0000000000e+00 0.0000e+00 1.0000e+00
  5000001  2    1    2    0    0 -3.0483198919e+01 +1.0938283508e+01 -1.1100560325e+03 1.4922469397e+03 9.9675857762e+02 0.0000e+00 0.0000e+00
  5000521  1    3    3    0    0 +3.0160172833e+01 +5.7004735319e+01 +1.8435154059e+02 1.9556243604e+02 1.0000000000e+01 0.0000e+00 -1.0000e+00
 -5000521  1    3    3    0    0 -6.0643371752e+01 -4.6066451812e+01 -1.2944075731e+03 1.2966845036e+03 1.0000000000e+01 0.0000e+00 1.0000e+00
       21  1    1    2  502  501 +3.0483198919e+01 -1.0938283508e+01 +6.2782576965e+01 7.0643636888e+01 0.0000000000e+00 0.0000e+00 -1.0000e+00
<mgrwt>
<rscale>  1 0.99728458E+03</rscale>
<asrwt>0</asrwt>
<pdfrwt beam="1">  1        2 0.20078185E+00 0.99728458E+03</pdfrwt>
<pdfrwt beam="2">  1       -2 0.39662855E-01 0.99728458E+03</pdfrwt>
<totfact> 0.98533405E+01</totfact>
</mgrwt>
</event>
<event>
 6      1 +3.0741590e+01 9.44754200e+02 7.81860800e-03 9.37130300e-02
        2 -1    0    0  502    0 +0.0000000000e+00 +0.0000000000e+00 +3.0291029315e+02 3.0291029315e+02 0.0000000000e+00 0.0000e+00 -1.0000e+00
       -2 -1    0    0    0  501 -0.0000000000e+00 -0.0000000000e+00 -8.0777063649e+02 8.0777063649e+02 0.0000000000e+00 0.0000e+00 1.0000e+00
  5000001  2    1    2    0    0 +5.3627868188e+00 -2.1358631191e+01 -5.2501069545e+02 1.0808315193e+03 9.4449753420e+02 0.0000e+00 0.0000e+00
  5000521  1    3    3    0    0 -3.8424348627e+02 -2.7390517613e+02 -3.3635003672e+02 5.7956746756e+02 1.0000000000e+01 0.0000e+00 -1.0000e+00
 -5000521  1    3    3    0    0 +3.8960627309e+02 +2.5254654494e+02 -1.8866065873e+02 5.0126405171e+02 1.0000000000e+01 0.0000e+00 1.0000e+00
       21  1    1    2  502  501 -5.3627868188e+00 +2.1358631191e+01 +2.0150352108e+01 2.9849410361e+01 0.0000000000e+00 0.0000e+00 -1.0000e+00
<mgrwt>
<rscale>  1 0.94475422E+03</rscale>
<asrwt>0</asrwt>
<pdfrwt beam="1">  1        2 0.46601584E-01 0.94475422E+03</pdfrwt>
<pdfrwt beam="2">  1       -2 0.12427240E+00 0.94475422E+03</pdfrwt>
<totfact> 0.52869330E+01</totfact>
</mgrwt>
</event>
<event>
 6      1 +3.0741590e+01 1.02414000e+03 7.81860800e-03 9.28245700e-02
       -1 -1    0    0    0  501 -0.0000000000e+00 +0.0000000000e+00 +2.4599561344e+02 2.4599561344e+02 0.0000000000e+00 0.0000e+00 1.0000e+00
        1 -1    0    0  502    0 +0.0000000000e+00 -0.0000000000e+00 -1.2300821493e+03 1.2300821493e+03 0.0000000000e+00 0.0000e+00 -1.0000e+00
  5000001  2    1    2    0    0 -6.8752632495e+01 -3.1095388753e+01 -9.2818892243e+02 1.3821714751e+03 1.0213566777e+03 0.0000e+00 0.0000e+00
  5000521  1    3    3    0    0 -3.4289423794e+02 +3.8578893379e+02 -5.6246209974e+02 7.6346131106e+02 1.0000000000e+01 0.0000e+00 -1.0000e+00
 -5000521  1    3    3    0    0 +2.7414160545e+02 -4.1688432254e+02 -3.6572682269e+02 6.1871016401e+02 1.0000000000e+01 0.0000e+00 1.0000e+00
       21  1    1    2  502  501 +6.8752632495e+01 +3.1095388753e+01 -5.5897613441e+01 9.3906287676e+01 0.0000000000e+00 0.0000e+00 -1.0000e+00
<mgrwt>
<rscale>  1 0.10241403E+04</rscale>
<asrwt>0</asrwt>
<pdfrwt beam="1">  1        1 0.18924341E+00 0.10241403E+04</pdfrwt>
<pdfrwt beam="2">  1       -1 0.37845479E-01 0.10241403E+04</pdfrwt>
<totfact> 0.68510407E+01</totfact>
</mgrwt>
</event>
<event>
 6      1 +3.0741590e+01 1.00436200e+03 7.81860800e-03 9.30377400e-02
        2 -1    0    0  502    0 +0.0000000000e+00 +0.0000000000e+00 +7.8924420366e+02 7.8924420366e+02 0.0000000000e+00 0.0000e+00 -1.0000e+00
       -2 -1    0    0    0  501 -0.0000000000e+00 -0.0000000000e+00 -3.8523510697e+02 3.8523510697e+02 0.0000000000e+00 0.0000e+00 1.0000e+00
  5000001  2    1    2    0    0 -4.1398271401e+01 +1.7486623486e+01 +4.5831443498e+02 1.1039905268e+03 1.0033560500e+03 0.0000e+00 0.0000e+00
  5000521  1    3    3    0    0 -1.7260274694e+02 -2.6496464493e+02 +6.6062406347e+02 7.3247670580e+02 1.0000000000e+01 0.0000e+00 -1.0000e+00
 -5000521  1    3    3    0    0 +1.3120447554e+02 +2.8245126841e+02 -2.0230962848e+02 3.7151382102e+02 1.0000000000e+01 0.0000e+00 1.0000e+00
       21  1    1    2  502  501 +4.1398271401e+01 -1.7486623486e+01 -5.4305338294e+01 7.0488783811e+01 0.0000000000e+00 0.0000e+00 -1.0000e+00
<mgrwt>
<rscale>  1 0.10043620E+04</rscale>
<asrwt>0</asrwt>
<pdfrwt beam="1">  1        2 0.12142219E+00 0.10043620E+04</pdfrwt>
<pdfrwt beam="2">  1       -2 0.59266940E-01 0.10043620E+04</pdfrwt>
<totfact> 0.93013616E+01</totfact>
</mgrwt>
</event>
<event>
 6      1 +3.0741590e+01 1.00742400e+03 7.81860800e-03 9.30043900e-02
        1 -1    0    0  502    0 +0.0000000000e+00 +0.0000000000e+00 +5.8528907841e+02 5.8528907841e+02 0.0000000000e+00 0.0000e+00 -1.0000e+00
       -1 -1    0    0    0  501 -0.0000000000e+00 -0.0000000000e+00 -4.6443475143e+02 4.6443475143e+02 0.0000000000e+00 0.0000e+00 1.0000e+00
  5000001  2    1    2    0    0 +2.8674325302e+01 -6.8674108997e+00 +9.7540809854e+01 1.0121352898e+03 1.0069926797e+03 0.0000e+00 0.0000e+00
  5000521  1    3    3    0    0 +4.7691619290e+02 +7.4291769237e+01 +2.3401055832e+02 5.3649721661e+02 1.0000000000e+01 0.0000e+00 -1.0000e+00
 -5000521  1    3    3    0    0 -4.4824186760e+02 -8.1159180137e+01 -1.3646974847e+02 4.7563807315e+02 1.0000000000e+01 0.0000e+00 1.0000e+00
       21  1    1    2  502  501 -2.8674325302e+01 +6.8674108997e+00 +2.3313517133e+01 3.7588540076e+01 0.0000000000e+00 0.0000e+00 1.0000e+00
<mgrwt>
<rscale>  1 0.10074243E+04</rscale>
<asrwt>0</asrwt>
<pdfrwt beam="1">  1        1 0.90044473E-01 0.10074243E+04</pdfrwt>
<pdfrwt beam="2">  1       -1 0.71451501E-01 0.10074243E+04</pdfrwt>
<totfact> 0.70383428E+01</totfact>
</mgrwt>
</event>
<event>
 6      1 +3.0741590e+01 1.02085500e+03 7.81860800e-03 9.28596300e-02
        2 -1    0    0  502    0 +0.0000000000e+00 +0.0000000000e+00 +2.7498020171e+02 2.7498020171e+02 0.0000000000e+00 0.0000e+00 1.0000e+00
       -2 -1    0    0    0  501 -0.0000000000e+00 -0.0000000000e+00 -1.0330093818e+03 1.0330093818e+03 0.0000000000e+00 0.0000e+00 -1.0000e+00
  5000001  2    1    2    0    0 +2.2913653571e+01 +1.9692188419e+01 -6.8614995456e+02 1.2300188142e+03 1.0204076172e+03 0.0000e+00 0.0000e+00
  5000521  1    3    3    0    0 +2.9675949716e+02 -3.6322500001e+02 -5.8239992610e+02 7.4785578404e+02 1.0000000000e+01 0.0000e+00 -1.0000e+00
 -5000521  1    3    3    0    0 -2.7384584359e+02 +3.8291718843e+02 -1.0375002846e+02 4.8216303016e+02 1.0000000000e+01 0.0000e+00 1.0000e+00
       21  1    1    2  502  501 -2.2913653571e+01 -1.9692188419e+01 -7.1879225488e+01 7.7970769276e+01 0.0000000000e+00 0.0000e+00 1.0000e+00
<mgrwt>
<rscale>  1 0.10208548E+04</rscale>
<asrwt>0</asrwt>
<pdfrwt beam="1">  1        2 0.42304648E-01 0.10208548E+04</pdfrwt>
<pdfrwt beam="2">  1       -2 0.15892452E+00 0.10208548E+04</pdfrwt>
<totfact> 0.30919403E+01</totfact>
</mgrwt>
</event>
<event>
 6      1 +3.0741590e+01 9.87982000e+02 7.81860800e-03 9.32182500e-02
       -2 -1    0    0    0  501 -0.0000000000e+00 +0.0000000000e+00 +3.7126956010e+02 3.7126956010e+02 0.0000000000e+00 0.0000e+00 -1.0000e+00
        2 -1    0    0  502    0 +0.0000000000e+00 -0.0000000000e+00 -7.4186681285e+02 7.4186681285e+02 0.0000000000e+00 0.0000e+00 1.0000e+00
  5000001  2    1    2    0    0 -4.1461291147e+01 -2.0777510653e+01 -3.0730372413e+02 1.0346710024e+03 9.8689298342e+02 0.0000e+00 0.0000e+00
  5000521  1    3    3    0    0 -6.9394739820e+01 +8.4888967074e-02 +3.5980736806e+02 3.6657465710e+02 1.0000000000e+01 0.0000e+00 -1.0000e+00
 -5000521  1    3    3    0    0 +2.7933448673e+01 -2.0862399620e+01 -6.6711109219e+02 6.6809634529e+02 1.0000000000e+01 0.0000e+00 1.0000e+00
       21  1    1    2  502  501 +4.1461291147e+01 +2.0777510653e+01 -6.3293528619e+01 7.8465370563e+01 0.0000000000e+00 0.0000e+00 -1.0000e+00
<mgrwt>
<rscale>  1 0.98798204E+03</rscale>
<asrwt>0</asrwt>
<pdfrwt beam="1">  1        2 0.11413335E+00 0.98798204E+03</pdfrwt>
<pdfrwt beam="2">  1       -2 0.57118394E-01 0.98798204E+03</pdfrwt>
<totfact> 0.10914891E+02</totfact>
</mgrwt>
</event>
<event>
 6      1 +3.0741590e+01 1.00386600e+03 7.81860800e-03 9.30431500e-02
        2 -1    0    0  502    0 +0.0000000000e+00 +0.0000000000e+00 +4.5329557382e+02 4.5329557382e+02 0.0000000000e+00 0.0000e+00 -1.0000e+00
       -2 -1    0    0    0  501 -0.0000000000e+00 -0.0000000000e+00 -5.9198580842e+02 5.9198580842e+02 0.0000000000e+00 0.0000e+00 1.0000e+00
  5000001  2    1    2    0    0 +2.6356546331e+01 +1.8183038757e+01 -1.3126464778e+02 1.0124114907e+03 1.0033550360e+03 0.0000e+00 0.0000e+00
  5000521  1    3    3    0    0 +9.6769181377e+01 +1.7503002274e+02 +4.0357708443e+02 4.5052663229e+02 1.0000000000e+01 0.0000e+00 -1.0000e+00
 -5000521  1    3    3    0    0 -7.0412635045e+01 -1.5684698399e+02 -5.3484173221e+02 5.6188485838e+02 1.0000000000e+01 0.0000e+00 1.0000e+00
       21  1    1    2  502  501 -2.6356546331e+01 -1.8183038757e+01 -7.4255868183e+00 3.2869891581e+01 0.0000000000e+00 0.0000e+00 1.0000e+00
<mgrwt>
<rscale>  1 0.10038658E+04</rscale>
<asrwt>0</asrwt>
<pdfrwt beam="1">  1        2 0.69737781E-01 0.10038658E+04</pdfrwt>
<pdfrwt beam="2">  1       -2 0.91074739E-01 0.10038658E+04</pdfrwt>
<totfact> 0.70797006E+01</totfact>
</mgrwt>
</event>
<event>
 6      1 +3.0741590e+01 1.01896800e+03 7.81860800e-03 9.28798200e-02
       21 -1    0    0  501  502 +0.0000000000e+00 +0.0000000000e+00 +9.8839771259e+02 9.8839771259e+02 0.0000000000e+00 0.0000e+00 -1.0000e+00
        1 -1    0    0  502    0 -0.0000000000e+00 -0.0000000000e+00 -4.3645693432e+02 4.3645693432e+02 0.0000000000e+00 0.0000e+00 -1.0000e+00
  5000001  2    1    2    0    0 -8.9926296239e+01 -1.5910863962e+02 +2.1479909878e+02 1.0413617395e+03 1.0024436751e+03 0.0000e+00 0.0000e+00
  5000521  1    3    3    0    0 -3.7515317634e+02 +2.6218980229e+02 +2.6675097548e+02 5.2984854540e+02 1.0000000000e+01 0.0000e+00 1.0000e+00
 -5000521  1    3    3    0    0 +2.8522688010e+02 -4.2129844191e+02 -5.1951876693e+01 5.1151319415e+02 1.0000000000e+01 0.0000e+00 -1.0000e+00
        1  1    1    2  501    0 +8.9926296239e+01 +1.5910863962e+02 +3.3714167948e+02 3.8349290737e+02 0.0000000000e+00 0.0000e+00 -1.0000e+00
<mgrwt>
<rscale>  1 0.10189679E+04</rscale>
<asrwt>0</asrwt>
<pdfrwt beam="1">  1       21 0.15206119E+00 0.10189679E+04</pdfrwt>
<pdfrwt beam="2">  1        1 0.67147221E-01 0.10189679E+04</pdfrwt>
<totfact> 0.13339992E+02</totfact>
</mgrwt>
</event>
<event>
 6      1 +3.0741590e+01 9.94010300e+02 7.81860800e-03 9.31513900e-02
        2 -1    0    0  502    0 +0.0000000000e+00 +0.0000000000e+00 +3.1457325484e+03 3.1457325484e+03 0.0000000000e+00 0.0000e+00 1.0000e+00
       -2 -1    0    0    0  501 -0.0000000000e+00 -0.0000000000e+00 -8.8030807446e+01 8.8030807446e+01 0.0000000000e+00 0.0000e+00 -1.0000e+00
  5000001  2    1    2    0    0 +1.8447549981e+01 -4.2249900018e+01 +2.7823174118e+03 2.9545467824e+03 9.9294065439e+02 0.0000e+00 0.0000e+00
  5000521  1    3    3    0    0 -1.3741646101e+02 -3.7841107846e+02 +2.3536002465e+03 2.3878049226e+03 1.0000000000e+01 0.0000e+00 1.0000e+00
 -5000521  1    3    3    0    0 +1.5586401099e+02 +3.3616117844e+02 +4.2871716529e+02 5.6674185978e+02 1.0000000000e+01 0.0000e+00 -1.0000e+00
       21  1    1    2  502  501 -1.8447549981e+01 +4.2249900018e+01 +2.7538432919e+02 2.7921657349e+02 0.0000000000e+00 0.0000e+00 -1.0000e+00
<mgrwt>
<rscale>  1 0.99401032E+03</rscale>
<asrwt>0</asrwt>
<pdfrwt beam="1">  1        2 0.48395877E+00 0.99401032E+03</pdfrwt>
<pdfrwt beam="2">  1       -2 0.13543204E-01 0.99401032E+03</pdfrwt>
<totfact> 0.60243362E+01</totfact>
</mgrwt>
</event>
<event>
 6      1 +3.0741590e+01 9.90322800e+02 7.81860800e-03 9.31922300e-02
       -2 -1    0    0    0  501 -0.0000000000e+00 +0.0000000000e+00 +1.7586762555e+02 1.7586762555e+02 0.0000000000e+00 0.0000e+00 -1.0000e+00
        2 -1    0    0  502    0 +0.0000000000e+00 -0.0000000000e+00 -1.4794566677e+03 1.4794566677e+03 0.0000000000e+00 0.0000e+00 1.0000e+00
  5000001  2    1    2    0    0 +1.6399500402e+01 -2.1866921019e+01 -1.2847175428e+03 1.6221092464e+03 9.8994552206e+02 0.0000e+00 0.0000e+00
  5000521  1    3    3    0    0 -3.2245782281e+02 -2.4142829520e+02 -1.7157246410e+02 4.3795408395e+02 1.0000000000e+01 0.0000e+00 -1.0000e+00
 -5000521  1    3    3    0    0 +3.3885732321e+02 +2.1956137418e+02 -1.1131450787e+03 1.1841551625e+03 1.0000000000e+01 0.0000e+00 1.0000e+00
       21  1    1    2  502  501 -1.6399500402e+01 +2.1866921019e+01 -1.8871499304e+01 3.3215046805e+01 0.0000000000e+00 0.0000e+00 -1.0000e+00
<mgrwt>
<rscale>  1 0.99032280E+03</rscale>
<asrwt>0</asrwt>
<pdfrwt beam="1">  1        2 0.22760871E+00 0.99032280E+03</pdfrwt>
<pdfrwt beam="2">  1       -2 0.27056558E-01 0.99032280E+03</pdfrwt>
<totfact> 0.16160229E+02</totfact>
</mgrwt>
</event>
<event>
 6      1 +3.0741590e+01 1.01060400e+03 7.81860800e-03 9.29699000e-02
        1 -1    0    0  502    0 +0.0000000000e+00 +0.0000000000e+00 +1.5203256036e+03 1.5203256036e+03 0.0000000000e+00 0.0000e+00 -1.0000e+00
       -1 -1    0    0    0  501 -0.0000000000e+00 -0.0000000000e+00 -1.9273831327e+02 1.9273831327e+02 0.0000000000e+00 0.0000e+00 1.0000e+00
  5000001  2    1    2    0    0 -1.4295010554e+01 +5.5383319272e+01 +1.3072909544e+03 1.6523712433e+03 1.0089843540e+03 0.0000e+00 0.0000e+00
  5000521  1    3    3    0    0 -1.4750987148e+02 +6.7821116174e+01 +1.4484897837e+03 1.4575944290e+03 1.0000000000e+01 0.0000e+00 -1.0000e+00
 -5000521  1    3    3    0    0 +1.3321486093e+02 -1.2437796903e+01 -1.4119882931e+02 1.9477681423e+02 1.0000000000e+01 0.0000e+00 1.0000e+00
       21  1    1    2  502  501 +1.4295010554e+01 -5.5383319272e+01 +2.0296335928e+01 6.0692673630e+01 0.0000000000e+00 0.0000e+00 1.0000e+00
<mgrwt>
<rscale>  1 0.10106043E+04</rscale>
<asrwt>0</asrwt>
<pdfrwt beam="1">  1        1 0.23389624E+00 0.10106043E+04</pdfrwt>
<pdfrwt beam="2">  1       -1 0.29652049E-01 0.10106043E+04</pdfrwt>
<totfact> 0.66132204E+01</totfact>
</mgrwt>
</event>
<event>
 6      1 +3.0741590e+01 1.01962700e+03 7.81860800e-03 9.28727700e-02
        2 -1    0    0  502    0 +0.0000000000e+00 +0.0000000000e+00 +3.4272573137e+03 3.4272573137e+03 0.0000000000e+00 0.0000e+00 -1.0000e+00
       -2 -1    0    0    0  501 -0.0000000000e+00 -0.0000000000e+00 -8.5817923050e+01 8.5817923050e+01 0.0000000000e+00 0.0000e+00 1.0000e+00
  5000001  2    1    2    0    0 +2.2689315084e+01 +2.3334273891e-01 +3.3378383732e+03 3.4901007554e+03 1.0193740324e+03 0.0000e+00 0.0000e+00
  5000521  1    3    3    0    0 +1.1302768852e+02 -4.1693639164e+02 +7.3603194811e+02 8.5349530854e+02 1.0000000000e+01 0.0000e+00 1.0000e+00
 -5000521  1    3    3    0    0 -9.0338373434e+01 +4.1716973438e+02 +2.6018064250e+03 2.6366054469e+03 1.0000000000e+01 0.0000e+00 -1.0000e+00
       21  1    1    2  502  501 -2.2689315084e+01 -2.3334273891e-01 +3.6010175245e+00 2.2974481387e+01 0.0000000000e+00 0.0000e+00 -1.0000e+00
<mgrwt>
<rscale>  1 0.10196265E+04</rscale>
<asrwt>0</asrwt>
<pdfrwt beam="1">  1        2 0.52727025E+00 0.10196265E+04</pdfrwt>
<pdfrwt beam="2">  1       -2 0.13202760E-01 0.10196265E+04</pdfrwt>
<totfact> 0.41027260E+01</totfact>
</mgrwt>
</event>
<event>
 6      1 +3.0741590e+01 1.01151200e+03 7.81860800e-03 9.29600800e-02
        2 -1    0    0  502    0 +0.0000000000e+00 +0.0000000000e+00 +5.7067684089e+02 5.7067684089e+02 0.0000000000e+00 0.0000e+00 -1.0000e+00
       -2 -1    0    0    0  501 -0.0000000000e+00 -0.0000000000e+00 -5.0545579679e+02 5.0545579679e+02 0.0000000000e+00 0.0000e+00 1.0000e+00
  5000001  2    1    2    0    0 -3.4507279054e+01 +2.6036846047e+01 +1.7389723171e+01 1.0116616758e+03 1.0105880834e+03 0.0000e+00 0.0000e+00
  5000521  1    3    3    0    0 +2.5211163472e+02 +3.1008804734e+02 -2.9864963772e+02 4.9900549053e+02 1.0000000000e+01 0.0000e+00 1.0000e+00
 -5000521  1    3    3    0    0 -2.8661891378e+02 -2.8405120130e+02 +3.1603936089e+02 5.1265618530e+02 1.0000000000e+01 0.0000e+00 -1.0000e+00
       21  1    1    2  502  501 +3.4507279054e+01 -2.6036846047e+01 +4.7831320932e+01 6.4470961850e+01 0.0000000000e+00 0.0000e+00 1.0000e+00
<mgrwt>
<rscale>  1 0.10115122E+04</rscale>
<asrwt>0</asrwt>
<pdfrwt beam="1">  1        2 0.87796437E-01 0.10115122E+04</pdfrwt>
<pdfrwt beam="2">  1       -2 0.77762431E-01 0.10115122E+04</pdfrwt>
<totfact> 0.77438725E+01</totfact>
</mgrwt>
</event>
<event>
 6      1 +3.0741590e+01 1.00214400e+03 7.81860800e-03 9.30619600e-02
       -2 -1    0    0    0  501 -0.0000000000e+00 +0.0000000000e+00 +2.8132846367e+02 2.8132846367e+02 0.0000000000e+00 0.0000e+00 1.0000e+00
        2 -1    0    0  502    0 +0.0000000000e+00 -0.0000000000e+00 -1.1621283991e+03 1.1621283991e+03 0.0000000000e+00 0.0000e+00 -1.0000e+00
  5000001  2    1    2    0    0 +1.5833517430e+01 -1.8429872321e+01 -9.4338283973e+02 1.3763228150e+03 1.0018497633e+03 0.0000e+00 0.0000e+00
  5000521  1    3    3    0    0 +2.7368164733e+02 -4.1652797500e+02 -3.1773302846e+02 5.9114420865e+02 1.0000000000e+01 0.0000e+00 1.0000e+00
 -5000521  1    3    3    0    0 -2.5784812990e+02 +3.9809810268e+02 -6.2564981127e+02 7.8517860630e+02 1.0000000000e+01 0.0000e+00 -1.0000e+00
       21  1    1    2  502  501 -1.5833517430e+01 +1.8429872321e+01 +6.2582904296e+01 6.7134047830e+01 0.0000000000e+00 0.0000e+00 -1.0000e+00
<mgrwt>
<rscale>  1 0.10021444E+04</rscale>
<asrwt>0</asrwt>
<pdfrwt beam="1">  1        2 0.17878898E+00 0.10021444E+04</pdfrwt>
<pdfrwt beam="2">  1       -2 0.43281302E-01 0.10021444E+04</pdfrwt>
<totfact> 0.10078067E+02</totfact>
</mgrwt>
</event>
<event>
 6      1 +3.0741590e+01 1.00237500e+03 7.81860800e-03 9.30594400e-02
       -2 -1    0    0    0  501 -0.0000000000e+00 +0.0000000000e+00 +1.0423419102e+02 1.0423419102e+02 0.0000000000e+00 0.0000e+00 1.0000e+00
        2 -1    0    0  502    0 +0.0000000000e+00 -0.0000000000e+00 -2.6524770214e+03 2.6524770214e+03 0.0000000000e+00 0.0000e+00 -1.0000e+00
  5000001  2    1    2    0    0 -1.0898097662e+01 +4.7267482306e+01 -2.4071763415e+03 2.6075376970e+03 1.0012002391e+03 0.0000e+00 0.0000e+00
  5000521  1    3    3    0    0 -1.2810057510e+02 +2.5579909334e+02 -2.3419666891e+03 2.3593963013e+03 1.0000000000e+01 0.0000e+00 -1.0000e+00
 -5000521  1    3    3    0    0 +1.1720247744e+02 -2.0853161103e+02 -6.5209652383e+01 2.4814139574e+02 1.0000000000e+01 0.0000e+00 1.0000e+00
       21  1    1    2  502  501 +1.0898097662e+01 -4.7267482306e+01 -1.4106648889e+02 1.4917351542e+02 0.0000000000e+00 0.0000e+00 1.0000e+00
<mgrwt>
<rscale>  1 0.10023746E+04</rscale>
<asrwt>0</asrwt>
<pdfrwt beam="1">  1        2 0.40807342E+00 0.10023746E+04</pdfrwt>
<pdfrwt beam="2">  1       -2 0.16036028E-01 0.10023746E+04</pdfrwt>
<totfact> 0.90016194E+01</totfact>
</mgrwt>
</event>
<event>
 6      1 +3.0741590e+01 9.89405600e+02 7.81860800e-03 9.32024100e-02
        2 -1    0    0  502    0 +0.0000000000e+00 +0.0000000000e+00 +5.9678490166e+02 5.9678490166e+02 0.0000000000e+00 0.0000e+00 -1.0000e+00
       -2 -1    0    0    0  501 -0.0000000000e+00 -0.0000000000e+00 -6.6864303721e+02 6.6864303721e+02 0.0000000000e+00 0.0000e+00 1.0000e+00
  5000001  2    1    2    0    0 +1.0381597380e+00 +4.3805926568e+01 +1.8355091491e+02 1.0062873978e+03 9.8843479885e+02 0.0000e+00 0.0000e+00
  5000521  1    3    3    0    0 -5.8520849435e+01 +3.2132806565e+01 +5.9068647980e+02 5.9453151682e+02 1.0000000000e+01 0.0000e+00 -1.0000e+00
 -5000521  1    3    3    0    0 +5.9559009173e+01 +1.1673120003e+01 -4.0713556489e+02 4.1175588095e+02 1.0000000000e+01 0.0000e+00 1.0000e+00
       21  1    1    2  502  501 -1.0381597380e+00 -4.3805926568e+01 -2.5540905047e+02 2.5914054110e+02 0.0000000000e+00 0.0000e+00 1.0000e+00
<mgrwt>
<rscale>  1 0.98940557E+03</rscale>
<asrwt>0</asrwt>
<pdfrwt beam="1">  1        2 0.91813063E-01 0.98940557E+03</pdfrwt>
<pdfrwt beam="2">  1       -2 0.10286816E+00 0.98940557E+03</pdfrwt>
<totfact> 0.38415844E+01</totfact>
</mgrwt>
</event>
<event>
 6      1 +3.0741590e+01 1.00550300e+03 7.81860800e-03 9.30252900e-02
       -1 -1    0    0    0  501 -0.0000000000e+00 +0.0000000000e+00 +1.7332500510e+02 1.7332500510e+02 0.0000000000e+00 0.0000e+00 1.0000e+00
        1 -1    0    0  502    0 +0.0000000000e+00 -0.0000000000e+00 -1.5225630294e+03 1.5225630294e+03 0.0000000000e+00 0.0000e+00 -1.0000e+00
  5000001  2    1    2    0    0 +1.4897369199e+01 +1.5127162173e+01 -1.3293582158e+03 1.6668024809e+03 1.0052793053e+03 0.0000e+00 0.0000e+00
  5000521  1    3    3    0    0 -4.0147075301e+02 -2.8426987642e+02 -6.2342893132e+02 7.9419881678e+02 1.0000000000e+01 0.0000e+00 -1.0000e+00
 -5000521  1    3    3    0    0 +4.1636812221e+02 +2.9939703859e+02 -7.0592928451e+02 8.7260366412e+02 1.0000000000e+01 0.0000e+00 1.0000e+00
       21  1    1    2  502  501 -1.4897369199e+01 -1.5127162173e+01 -1.9879808508e+01 2.9085553644e+01 0.0000000000e+00 0.0000e+00 1.0000e+00
<mgrwt>
<rscale>  1 0.10055035E+04</rscale>
<asrwt>0</asrwt>
<pdfrwt beam="1">  1        1 0.23424047E+00 0.10055035E+04</pdfrwt>
<pdfrwt beam="2">  1       -1 0.26665384E-01 0.10055035E+04</pdfrwt>
<totfact> 0.79289409E+01</totfact>
</mgrwt>
</event>
<event>
 6      1 +3.0741590e+01 1.00282500e+03 7.81860800e-03 9.30545100e-02
        2 -1    0    0  502    0 +0.0000000000e+00 +0.0000000000e+00 +1.1766461357e+03 1.1766461357e+03 0.0000000000e+00 0.0000e+00 1.0000e+00
       -2 -1    0    0    0  501 -0.0000000000e+00 -0.0000000000e+00 -2.4423714680e+02 2.4423714680e+02 0.0000000000e+00 0.0000e+00 -1.0000e+00
  5000001  2    1    2    0    0 -4.7939929591e+01 -3.3335147825e+01 +8.2475837940e+02 1.2984164598e+03 1.0011240931e+03 0.0000e+00 0.0000e+00
  5000521  1    3    3    0    0 +1.6711586416e+02 -1.6642982180e+02 +9.7561100502e+02 1.0037646292e+03 1.0000000000e+01 0.0000e+00 1.0000e+00
 -5000521  1    3    3    0    0 -2.1505579375e+02 +1.3309467398e+02 -1.5085262561e+02 2.9465183067e+02 1.0000000000e+01 0.0000e+00 -1.0000e+00
       21  1    1    2  502  501 +4.7939929591e+01 +3.3335147825e+01 +1.0765060954e+02 1.2246682271e+02 0.0000000000e+00 0.0000e+00 1.0000e+00
<mgrwt>
<rscale>  1 0.10028255E+04</rscale>
<asrwt>0</asrwt>
<pdfrwt beam="1">  1        2 0.18102248E+00 0.10028255E+04</pdfrwt>
<pdfrwt beam="2">  1       -2 0.37574946E-01 0.10028255E+04</pdfrwt>
<totfact> 0.13033830E+02</totfact>
</mgrwt>
</event>
<event>
 6      1 +3.0741590e+01 1.00166100e+03 7.81860800e-03 9.30672400e-02
       21 -1    0    0  501  502 +0.0000000000e+00 +0.0000000000e+00 +3.7029161303e+02 3.7029161303e+02 0.0000000000e+00 0.0000e+00 -1.0000e+00
        2 -1    0    0  502    0 -0.0000000000e+00 -0.0000000000e+00 -7.7025816123e+02 7.7025816123e+02 0.0000000000e+00 0.0000e+00 1.0000e+00
  5000001  2    1    2    0    0 -4.5118479221e+01 +4.8254431869e+01 -3.8258799650e+02 1.0722403209e+03 9.9948064678e+02 0.0000e+00 0.0000e+00
  5000521  1    3    3    0    0 -3.1206017894e+02 +4.3185352324e+02 -1.7633943057e+02 5.6131507694e+02 1.0000000000e+01 0.0000e+00 -1.0000e+00
 -5000521  1    3    3    0    0 +2.6694169972e+02 -3.8359909137e+02 -2.0624856592e+02 5.1092524395e+02 1.0000000000e+01 0.0000e+00 1.0000e+00
        2  1    1    2  501    0 +4.5118479221e+01 -4.8254431869e+01 -1.7378551706e+01 6.8309453384e+01 0.0000000000e+00 0.0000e+00 1.0000e+00
<mgrwt>
<rscale>  1 0.10016615E+04</rscale>
<asrwt>0</asrwt>
<pdfrwt beam="1">  1       21 0.56967941E-01 0.10016615E+04</pdfrwt>
<pdfrwt beam="2">  1        2 0.11850125E+00 0.10016615E+04</pdfrwt>
<totfact> 0.11492830E+03</totfact>
</mgrwt>
</event>
<event>
 5      1 +3.0741590e+01 1.23374300e+03 7.81860800e-03 9.08382300e-02
       -1 -1    0    0    0  501 -0.0000000000e+00 +0.0000000000e+00 +5.7215248185e+02 5.7215248185e+02 0.0000000000e+00 0.0000e+00 -1.0000e+00
        1 -1    0    0  502    0 +0.0000000000e+00 -0.0000000000e+00 -1.5870016393e+03 1.5870016393e+03 0.0000000000e+00 0.0000e+00 1.0000e+00
  5000521  1    1    2    0    0 -3.4494428497e+02 -5.9738220439e+02 -2.4630620932e+02 7.3254269951e+02 1.0000000000e+01 0.0000e+00 1.0000e+00
 -5000521  1    1    2    0    0 +1.6352394537e+02 +4.6424887769e+02 +1.2272535304e+02 5.0737423410e+02 1.0000000000e+01 0.0000e+00 -1.0000e+00
       21  1    1    2  502  501 +1.8142033960e+02 +1.3313332670e+02 -8.9126830118e+02 9.1923718755e+02 0.0000000000e+00 0.0000e+00 1.0000e+00
<mgrwt>
<rscale>  1 0.12337430E+04</rscale>
<asrwt>0</asrwt>
<pdfrwt beam="1">  1        1 0.24415410E+00 0.12337430E+04</pdfrwt>
<pdfrwt beam="2">  1       -1 0.88023459E-01 0.12337430E+04</pdfrwt>
<totfact> 0.70982727E+00</totfact>
</mgrwt>
</event>
<event>
 6      1 +3.0741590e+01 1.02394200e+03 7.81860800e-03 9.28266900e-02
       -2 -1    0    0    0  501 -0.0000000000e+00 +0.0000000000e+00 +1.1920245217e+02 1.1920245217e+02 0.0000000000e+00 0.0000e+00 -1.0000e+00
        2 -1    0    0  502    0 +0.0000000000e+00 -0.0000000000e+00 -3.3638641271e+03 3.3638641271e+03 0.0000000000e+00 0.0000e+00 1.0000e+00
  5000001  2    1    2    0    0 +2.0753287194e+01 +2.3877894784e+02 -2.7162433553e+03 2.9028321393e+03 9.9549504201e+02 0.0000e+00 0.0000e+00
  5000521  1    3    3    0    0 -4.1956186312e+01 +6.2584858325e+02 -1.7988982168e+03 1.9051460745e+03 1.0000000000e+01 0.0000e+00 -1.0000e+00
 -5000521  1    3    3    0    0 +6.2709473506e+01 -3.8706963541e+02 -9.1734513852e+02 9.9768606480e+02 1.0000000000e+01 0.0000e+00 1.0000e+00
       21  1    1    2  502  501 -2.0753287194e+01 -2.3877894784e+02 -5.2841831964e+02 5.8023444003e+02 0.0000000000e+00 0.0000e+00 -1.0000e+00
<mgrwt>
<rscale>  1 0.10239416E+04</rscale>
<asrwt>0</asrwt>
<pdfrwt beam="1">  1        2 0.51751753E+00 0.10239416E+04</pdfrwt>
<pdfrwt beam="2">  1       -2 0.18338840E-01 0.10239416E+04</pdfrwt>
<totfact> 0.25800145E+01</totfact>
</mgrwt>
</event>
<event>
 6      1 +3.0741590e+01 9.96618700e+02 7.81860800e-03 9.31226100e-02
        2 -1    0    0  502    0 +0.0000000000e+00 +0.0000000000e+00 +1.0339216536e+03 1.0339216536e+03 0.0000000000e+00 0.0000e+00 1.0000e+00
       -2 -1    0    0    0  501 -0.0000000000e+00 -0.0000000000e+00 -4.2822126917e+02 4.2822126917e+02 0.0000000000e+00 0.0000e+00 -1.0000e+00
  5000001  2    1    2    0    0 +1.2979637332e+01 +1.9469542647e+01 +1.5235824226e+02 1.0081972961e+03 9.9634392650e+02 0.0000e+00 0.0000e+00
  5000521  1    3    3    0    0 +4.0789373830e+02 +2.8399077718e+02 +1.8790071029e+02 5.3144589583e+02 1.0000000000e+01 0.0000e+00 -1.0000e+00
 -5000521  1    3    3    0    0 -3.9491410096e+02 -2.6452123453e+02 -3.5542468025e+01 4.7675140031e+02 1.0000000000e+01 0.0000e+00 1.0000e+00
       21  1    1    2  502  501 -1.2979637332e+01 -1.9469542647e+01 +4.5334214217e+02 4.5394562664e+02 0.0000000000e+00 0.0000e+00 -1.0000e+00
<mgrwt>
<rscale>  1 0.99661866E+03</rscale>
<asrwt>0</asrwt>
<pdfrwt beam="1">  1        2 0.15906487E+00 0.99661866E+03</pdfrwt>
<pdfrwt beam="2">  1       -2 0.65880196E-01 0.99661866E+03</pdfrwt>
<totfact> 0.50665467E+01</totfact>
</mgrwt>
</event>
<event>
 6      1 +3.0741590e+01 9.91052700e+02 7.81860800e-03 9.31841300e-02
       -2 -1    0    0    0  501 -0.0000000000e+00 +0.0000000000e+00 +2.1316884599e+02 2.1316884599e+02 0.0000000000e+00 0.0000e+00 -1.0000e+00
        2 -1    0    0  502    0 +0.0000000000e+00 -0.0000000000e+00 -1.6727600854e+03 1.6727600854e+03 0.0000000000e+00 0.0000e+00 1.0000e+00
  5000001  2    1    2    0    0 +2.2376386512e+01 +5.3938749042e-01 -1.5239111213e+03 1.8178257683e+03 9.9079989139e+02 0.0000e+00 0.0000e+00
  5000521  1    3    3    0    0 -4.9584737293e+01 -4.3653590660e+02 -3.4593699502e+02 5.5928047386e+02 1.0000000000e+01 0.0000e+00 -1.0000e+00
 -5000521  1    3    3    0    0 +7.1961123805e+01 +4.3707529409e+02 -1.1779741262e+03 1.2585452944e+03 1.0000000000e+01 0.0000e+00 1.0000e+00
       21  1    1    2  502  501 -2.2376386512e+01 -5.3938749042e-01 +6.4319881891e+01 6.8103163059e+01 0.0000000000e+00 0.0000e+00 1.0000e+00
<mgrwt>
<rscale>  1 0.99105268E+03</rscale>
<asrwt>0</asrwt>
<pdfrwt beam="1">  1        2 0.25734771E+00 0.99105268E+03</pdfrwt>
<pdfrwt beam="2">  1       -2 0.32795207E-01 0.99105268E+03</pdfrwt>
<totfact> 0.88105551E+01</totfact>
</mgrwt>
</event>
<event>
 6      1 +3.0741590e+01 9.98553100e+02 7.81860800e-03 9.31013300e-02
       -2 -1    0    0    0  501 -0.0000000000e+00 +0.0000000000e+00 +2.3992078413e+02 2.3992078413e+02 0.0000000000e+00 0.0000e+00 -1.0000e+00
        2 -1    0    0  502    0 +0.0000000000e+00 -0.0000000000e+00 -1.1381322158e+03 1.1381322158e+03 0.0000000000e+00 0.0000e+00 1.0000e+00
  5000001  2    1    2    0    0 -4.0579647408e+01 +9.2878737706e+00 -8.3152225610e+02 1.2994373620e+03 9.9768493178e+02 0.0000e+00 0.0000e+00
  5000521  1    3    3    0    0 -1.3526847826e+01 +4.8871550676e+02 -5.7538939274e+02 7.5511507430e+02 1.0000000000e+01 0.0000e+00 -1.0000e+00
 -5000521  1    3    3    0    0 -2.7052799582e+01 -4.7942763299e+02 -2.5613286336e+02 5.4432228774e+02 1.0000000000e+01 0.0000e+00 1.0000e+00
       21  1    1    2  502  501 +4.0579647408e+01 -9.2878737706e+00 -6.6689175610e+01 7.8615637926e+01 0.0000000000e+00 0.0000e+00 -1.0000e+00
<mgrwt>
<rscale>  1 0.99855305E+03</rscale>
<asrwt>0</asrwt>
<pdfrwt beam="1">  1        2 0.17509726E+00 0.99855305E+03</pdfrwt>
<pdfrwt beam="2">  1       -2 0.36910890E-01 0.99855305E+03</pdfrwt>
<totfact> 0.14238728E+02</totfact>
</mgrwt>
</event>
<event>
 6      1 +3.0741590e+01 1.00776200e+03 7.81860800e-03 9.30007200e-02
        5 -1    0    0  502    0 +0.0000000000e+00 +0.0000000000e+00 +5.4765896809e+02 5.4765896809e+02 0.0000000000e+00 0.0000e+00 -1.0000e+00
       -5 -1    0    0    0  501 -0.0000000000e+00 -0.0000000000e+00 -4.9379566664e+02 4.9379566664e+02 0.0000000000e+00 0.0000e+00 1.0000e+00
  5000001  2    1    2    0    0 -1.7654802501e+00 -3.1835697141e+01 +4.7111463394e+01 1.0088629817e+03 1.0072578604e+03 0.0000e+00 0.0000e+00
  5000521  1    3    3    0    0 +7.0396455738e+00 -2.3468989532e+02 -4.3012091441e+02 4.9013559816e+02 1.0000000000e+01 0.0000e+00 1.0000e+00
 -5000521  1    3    3    0    0 -8.8051258240e+00 +2.0285419818e+02 +4.7723237780e+02 5.1872738349e+02 1.0000000000e+01 0.0000e+00 -1.0000e+00
       21  1    1    2  502  501 +1.7654802501e+00 +3.1835697141e+01 +6.7518380536e+00 3.2591653073e+01 0.0000000000e+00 0.0000e+00 -1.0000e+00
<mgrwt>
<rscale>  1 0.10077624E+04</rscale>
<asrwt>0</asrwt>
<pdfrwt beam="1">  1        5 0.84255226E-01 0.10077624E+04</pdfrwt>
<pdfrwt beam="2">  1       -5 0.75968564E-01 0.10077624E+04</pdfrwt>
<totfact> 0.17328147E+00</totfact>
</mgrwt>
</event>
<event>
 6      1 +3.0741590e+01 1.59529000e+03 7.81860800e-03 8.82344700e-02
       21 -1    0    0  501  502 +0.0000000000e+00 +0.0000000000e+00 +2.1865996503e+03 2.1865996503e+03 0.0000000000e+00 0.0000e+00 1.0000e+00
        2 -1    0    0  502    0 -0.0000000000e+00 -0.0000000000e+00 -2.9097107380e+02 2.9097107380e+02 0.0000000000e+00 0.0000e+00 1.0000e+00
  5000001  2    1    2    0    0 +2.3667670123e+02 +4.1285288372e+00 +1.9756790702e+03 2.2276887776e+03 1.0016269743e+03 0.0000e+00 0.0000e+00
  5000521  1    3    3    0    0 +5.8499448204e+02 +3.1508165774e+01 +7.4200473300e+02 9.4545350617e+02 1.0000000000e+01 0.0000e+00 1.0000e+00
 -5000521  1    3    3    0    0 -3.4831778081e+02 -2.7379636937e+01 +1.2336743372e+03 1.2822352714e+03 1.0000000000e+01 0.0000e+00 -1.0000e+00
        2  1    1    2  501    0 -2.3667670123e+02 -4.1285288372e+00 -8.0050493716e+01 2.4988194653e+02 0.0000000000e+00 0.0000e+00 1.0000e+00
<mgrwt>
<rscale>  1 0.15952896E+04</rscale>
<asrwt>0</asrwt>
<pdfrwt beam="1">  1       21 0.33639994E+00 0.15952896E+04</pdfrwt>
<pdfrwt beam="2">  1        2 0.44764782E-01 0.15952896E+04</pdfrwt>
<totfact> 0.17569407E+01</totfact>
</mgrwt>
</event>
<event>
 6      1 +3.0741590e+01 1.28156700e+03 7.81860800e-03 9.04431200e-02
       21 -1    0    0  501  502 +0.0000000000e+00 +0.0000000000e+00 +1.5034972964e+03 1.5034972964e+03 0.0000000000e+00 0.0000e+00 1.0000e+00
        2 -1    0    0  502    0 -0.0000000000e+00 -0.0000000000e+00 -7.2830645334e+02 7.2830645334e+02 0.0000000000e+00 0.0000e+00 -1.0000e+00
  5000001  2    1    2    0    0 +5.7962411393e+02 +5.5277779633e+02 +5.8394200230e+02 1.4083333345e+03 1.0004434584e+03 0.0000e+00 0.0000e+00
  5000521  1    3    3    0    0 +3.9519919130e+02 +1.4973618469e+02 -2.3016840414e+02 4.8133233849e+02 1.0000000000e+01 0.0000e+00 -1.0000e+00
 -5000521  1    3    3    0    0 +1.8442492263e+02 +4.0304161164e+02 +8.1411040644e+02 9.2700099605e+02 1.0000000000e+01 0.0000e+00 1.0000e+00
        2  1    1    2  501    0 -5.7962411393e+02 -5.5277779633e+02 +1.9124884072e+02 8.2347041516e+02 0.0000000000e+00 0.0000e+00 -1.0000e+00
<mgrwt>
<rscale>  1 0.12815672E+04</rscale>
<asrwt>0</asrwt>
<pdfrwt beam="1">  1       21 0.23130728E+00 0.12815672E+04</pdfrwt>
<pdfrwt beam="2">  1        2 0.11204715E+00 0.12815672E+04</pdfrwt>
<totfact> 0.28941599E+01</totfact>
</mgrwt>
</event>
<event>
 6      1 +3.0741590e+01 1.00727400e+03 7.81860800e-03 9.30060200e-02
       21 -1    0    0  501  502 +0.0000000000e+00 +0.0000000000e+00 +7.8183287918e+02 7.8183287918e+02 0.0000000000e+00 0.0000e+00 -1.0000e+00
        5 -1    0    0  502    0 -0.0000000000e+00 -0.0000000000e+00 -7.2738767716e+02 7.2738767716e+02 0.0000000000e+00 0.0000e+00 1.0000e+00
  5000001  2    1    2    0    0 +2.2811276535e+01 +2.1022010597e+01 -3.7785107771e+02 1.0758127199e+03 1.0067965495e+03 0.0000e+00 0.0000e+00
  5000521  1    3    3    0    0 -1.3886923165e+02 +2.1477233372e+02 -6.5357719905e+02 7.0190809508e+02 1.0000000000e+01 0.0000e+00 1.0000e+00
 -5000521  1    3    3    0    0 +1.6168050818e+02 -1.9375032312e+02 +2.7572612134e+02 3.7390462477e+02 1.0000000000e+01 0.0000e+00 -1.0000e+00
        5  1    1    2  501    0 -2.2811276535e+01 -2.1022010597e+01 +4.3229627972e+02 4.3340783649e+02 0.0000000000e+00 0.0000e+00 1.0000e+00
<mgrwt>
<rscale>  1 0.10072743E+04</rscale>
<asrwt>0</asrwt>
<pdfrwt beam="1">  1       21 0.12028198E+00 0.10072743E+04</pdfrwt>
<pdfrwt beam="2">  1        5 0.11190580E+00 0.10072743E+04</pdfrwt>
<totfact> 0.78377924E+00</totfact>
</mgrwt>
</event>
<event>
 6      1 +3.0741590e+01 9.94237800e+02 7.81860800e-03 9.31488700e-02
       -2 -1    0    0    0  501 -0.0000000000e+00 +0.0000000000e+00 +7.3711952741e+02 7.3711952741e+02 0.0000000000e+00 0.0000e+00 -1.0000e+00
        2 -1    0    0  502    0 +0.0000000000e+00 -0.0000000000e+00 -3.7558763544e+02 3.7558763544e+02 0.0000000000e+00 0.0000e+00 1.0000e+00
  5000001  2    1    2    0    0 -1.9833217380e+01 +1.6232579364e+01 +2.8841057730e+02 1.0352243918e+03 9.9390745405e+02 0.0000e+00 0.0000e+00
  5000521  1    3    3    0    0 +1.2809134204e+02 -4.5220054515e+02 +9.3948612451e+00 4.7019250139e+02 1.0000000000e+01 0.0000e+00 -1.0000e+00
 -5000521  1    3    3    0    0 -1.4792455942e+02 +4.6843312452e+02 +2.7901571605e+02 5.6503189045e+02 1.0000000000e+01 0.0000e+00 1.0000e+00
       21  1    1    2  502  501 +1.9833217380e+01 -1.6232579364e+01 +7.3121314675e+01 7.7482771016e+01 0.0000000000e+00 0.0000e+00 -1.0000e+00
<mgrwt>
<rscale>  1 0.99423784E+03</rscale>
<asrwt>0</asrwt>
<pdfrwt beam="1">  1        2 0.57782713E-01 0.99423784E+03</pdfrwt>
<pdfrwt beam="2">  1       -2 0.11340300E+00 0.99423784E+03</pdfrwt>
<totfact> 0.51981911E+01</totfact>
</mgrwt>
</event>
<event>
 6      1 +3.0741590e+01 1.00809000e+03 7.81860800e-03 9.29971600e-02
        2 -1    0    0  502    0 +0.0000000000e+00 +0.0000000000e+00 +3.2655307272e+03 3.2655307272e+03 0.0000000000e+00 0.0000e+00 -1.0000e+00
       -2 -1    0    0    0  501 -0.0000000000e+00 -0.0000000000e+00 -9.1824995637e+01 9.1824995637e+01 0.0000000000e+00 0.0000e+00 1.0000e+00
  5000001  2    1    2    0    0 +2.7439086408e+01 +1.5495424234e+01 +3.1690197409e+03 3.3254971268e+03 1.0075971470e+03 0.0000e+00 0.0000e+00
  5000521  1    3    3    0    0 -4.1568451403e+02 +2.7096530530e+02 +1.5934841063e+03 1.6689839451e+03 1.0000000000e+01 0.0000e+00 -1.0000e+00
 -5000521  1    3    3    0    0 +4.4312360044e+02 -2.5546988106e+02 +1.5755356345e+03 1.6565131817e+03 1.0000000000e+01 0.0000e+00 1.0000e+00
       21  1    1    2  502  501 -2.7439086408e+01 -1.5495424234e+01 +4.6859907268e+00 3.1858596080e+01 0.0000000000e+00 0.0000e+00 -1.0000e+00
<mgrwt>
<rscale>  1 0.10080898E+04</rscale>
<asrwt>0</asrwt>
<pdfrwt beam="1">  1        2 0.50238925E+00 0.10080898E+04</pdfrwt>
<pdfrwt beam="2">  1       -2 0.14126925E-01 0.10080898E+04</pdfrwt>
<totfact> 0.46921943E+01</totfact>
</mgrwt>
</event>
<event>
 6      1 +3.0741590e+01 9.98014700e+02 7.81860800e-03 9.31072500e-02
       -2 -1    0    0    0  501 -0.0000000000e+00 +0.0000000000e+00 +1.7087677325e+02 1.7087677325e+02 0.0000000000e+00 0.0000e+00 -1.0000e+00
        2 -1    0    0  502    0 +0.0000000000e+00 -0.0000000000e+00 -1.8489011486e+03 1.8489011486e+03 0.0000000000e+00 0.0000e+00 1.0000e+00
  5000001  2    1    2    0    0 +1.4251131943e-01 +9.2424822086e+01 -1.6400769808e+03 1.9198660967e+03 9.9372579632e+02 0.0000e+00 0.0000e+00
  5000521  1    3    3    0    0 +3.0832925707e+02 -1.1002031965e+02 -1.4833595335e+03 1.5190875245e+03 1.0000000000e+01 0.0000e+00 1.0000e+00
 -5000521  1    3    3    0    0 -3.0818674575e+02 +2.0244514173e+02 -1.5671744736e+02 4.0077857225e+02 1.0000000000e+01 0.0000e+00 -1.0000e+00
       21  1    1    2  502  501 -1.4251131943e-01 -9.2424822086e+01 -3.7947394510e+01 9.9911825112e+01 0.0000000000e+00 0.0000e+00 -1.0000e+00
<mgrwt>
<rscale>  1 0.99801469E+03</rscale>
<asrwt>0</asrwt>
<pdfrwt beam="1">  1        2 0.28444634E+00 0.99801469E+03</pdfrwt>
<pdfrwt beam="2">  1       -2 0.26288733E-01 0.99801469E+03</pdfrwt>
<totfact> 0.10621003E+02</totfact>
</mgrwt>
</event>
<event>
 6      1 +3.0741590e+01 9.95826500e+02 7.81860800e-03 9.31313400e-02
        2 -1    0    0  502    0 +0.0000000000e+00 +0.0000000000e+00 +8.9148971866e+02 8.9148971866e+02 0.0000000000e+00 0.0000e+00 -1.0000e+00
       -2 -1    0    0    0  501 -0.0000000000e+00 -0.0000000000e+00 -2.9259585460e+02 2.9259585460e+02 0.0000000000e+00 0.0000e+00 1.0000e+00
  5000001  2    1    2    0    0 -2.1291638716e+01 -9.4257083855e+00 +5.7162173845e+02 1.1482254744e+03 9.9555419253e+02 0.0000e+00 0.0000e+00
  5000521  1    3    3    0    0 +4.0010402477e+02 +2.4859362920e+02 +4.2026909517e+02 6.3135420761e+02 1.0000000000e+01 0.0000e+00 1.0000e+00
 -5000521  1    3    3    0    0 -4.2139566348e+02 -2.5801933758e+02 +1.5135264328e+02 5.1687126675e+02 1.0000000000e+01 0.0000e+00 -1.0000e+00
       21  1    1    2  502  501 +2.1291638716e+01 +9.4257083855e+00 +2.7272125606e+01 3.5860098896e+01 0.0000000000e+00 0.0000e+00 1.0000e+00
<mgrwt>
<rscale>  1 0.99582645E+03</rscale>
<asrwt>0</asrwt>
<pdfrwt beam="1">  1        2 0.13715226E+00 0.99582645E+03</pdfrwt>
<pdfrwt beam="2">  1       -2 0.45014747E-01 0.99582645E+03</pdfrwt>
<totfact> 0.13879623E+02</totfact>
</mgrwt>
</event>
<event>
 6      1 +3.0741590e+01 9.99788800e+02 7.81860800e-03 9.30877600e-02
       -2 -1    0    0    0  501 -0.0000000000e+00 +0.0000000000e+00 +1.7144514737e+02 1.7144514737e+02 0.0000000000e+00 0.0000e+00 1.0000e+00
        2 -1    0    0  502    0 +0.0000000000e+00 -0.0000000000e+00 -1.5546141907e+03 1.5546141907e+03 0.0000000000e+00 0.0000e+00 -1.0000e+00
  5000001  2    1    2    0    0 +3.2556311477e+01 +3.4921928760e+00 -1.3388721657e+03 1.6709746560e+03 9.9925247869e+02 0.0000e+00 0.0000e+00
  5000521  1    3    3    0    0 +1.9478393931e+02 -3.5898406640e+02 -1.8098777596e+02 4.4684104331e+02 1.0000000000e+01 0.0000e+00 1.0000e+00
 -5000521  1    3    3    0    0 -1.6222762784e+02 +3.6247625927e+02 -1.1578843898e+03 1.2241336127e+03 1.0000000000e+01 0.0000e+00 -1.0000e+00
       21  1    1    2  502  501 -3.2556311477e+01 -3.4921928760e+00 -4.4296877647e+01 5.5084682058e+01 0.0000000000e+00 0.0000e+00 1.0000e+00
<mgrwt>
<rscale>  1 0.99978879E+03</rscale>
<asrwt>0</asrwt>
<pdfrwt beam="1">  1        2 0.23917141E+00 0.99978879E+03</pdfrwt>
<pdfrwt beam="2">  1       -2 0.26376177E-01 0.99978879E+03</pdfrwt>
<totfact> 0.15355623E+02</totfact>
</mgrwt>
</event>
<event>
 6      1 +3.0741590e+01 1.01104500e+03 7.81860800e-03 9.29651300e-02
        1 -1    0    0  502    0 +0.0000000000e+00 +0.0000000000e+00 +1.6226625746e+03 1.6226625746e+03 0.0000000000e+00 0.0000e+00 -1.0000e+00
       -1 -1    0    0    0  501 -0.0000000000e+00 -0.0000000000e+00 -1.7212731381e+02 1.7212731381e+02 0.0000000000e+00 0.0000e+00 1.0000e+00
  5000001  2    1    2    0    0 -3.1409828436e+01 +3.8485974489e+00 +1.3328959342e+03 1.6729687072e+03 1.0105500160e+03 0.0000e+00 0.0000e+00
  5000521  1    3    3    0    0 +3.8375919470e+02 +2.5717193630e+02 +3.6186463171e+02 5.8690249277e+02 1.0000000000e+01 0.0000e+00 1.0000e+00
 -5000521  1    3    3    0    0 -4.1516902313e+02 -2.5332333885e+02 +9.7103130246e+02 1.0860662144e+03 1.0000000000e+01 0.0000e+00 -1.0000e+00
       21  1    1    2  502  501 +3.1409828436e+01 -3.8485974489e+00 +1.1763932657e+02 1.2182118117e+02 0.0000000000e+00 0.0000e+00 1.0000e+00
<mgrwt>
<rscale>  1 0.10110454E+04</rscale>
<asrwt>0</asrwt>
<pdfrwt beam="1">  1        1 0.24964039E+00 0.10110454E+04</pdfrwt>
<pdfrwt beam="2">  1       -1 0.26481126E-01 0.10110454E+04</pdfrwt>
<totfact> 0.68495098E+01</totfact>
</mgrwt>
</event>
<event>
 6      1 +3.0741590e+01 1.00722500e+03 7.81860800e-03 9.30065500e-02
        2 -1    0    0  502    0 +0.0000000000e+00 +0.0000000000e+00 +2.3762234305e+03 2.3762234305e+03 0.0000000000e+00 0.0000e+00 1.0000e+00
       -2 -1    0    0    0  501 -0.0000000000e+00 -0.0000000000e+00 -1.2971203026e+02 1.2971203026e+02 0.0000000000e+00 0.0000e+00 -1.0000e+00
  5000001  2    1    2    0    0 +8.6884591873e+01 +4.7349290033e+01 +2.1011374993e+03 2.3300819460e+03 1.0023533292e+03 0.0000e+00 0.0000e+00
  5000521  1    3    3    0    0 -2.2136457191e+02 +1.9369195925e+02 +1.1687323640e+02 3.1666733675e+02 1.0000000000e+01 0.0000e+00 -1.0000e+00
 -5000521  1    3    3    0    0 +3.0824916378e+02 -1.4634266922e+02 +1.9842642629e+03 2.0134146092e+03 1.0000000000e+01 0.0000e+00 1.0000e+00
       21  1    1    2  502  501 -8.6884591873e+01 -4.7349290033e+01 +1.4537390093e+02 1.7585351473e+02 0.0000000000e+00 0.0000e+00 1.0000e+00
<mgrwt>
<rscale>  1 0.10072254E+04</rscale>
<asrwt>0</asrwt>
<pdfrwt beam="1">  1        2 0.36557280E+00 0.10072254E+04</pdfrwt>
<pdfrwt beam="2">  1       -2 0.19955699E-01 0.10072254E+04</pdfrwt>
<totfact> 0.88666664E+01</totfact>
</mgrwt>
</event>
<event>
 6      1 +3.0741590e+01 1.01184200e+03 7.81860800e-03 9.29565100e-02
        2 -1    0    0  502    0 +0.0000000000e+00 +0.0000000000e+00 +5.5037005765e+03 5.5037005765e+03 0.0000000000e+00 0.0000e+00 -1.0000e+00
       -2 -1    0    0    0  501 -0.0000000000e+00 -0.0000000000e+00 -5.3127963350e+01 5.3127963350e+01 0.0000000000e+00 0.0000e+00 1.0000e+00
  5000001  2    1    2    0    0 -6.9137145291e+01 +8.3131375595e+00 +5.1033299260e+03 5.2026724487e+03 1.0094430255e+03 0.0000e+00 0.0000e+00
  5000521  1    3    3    0    0 +2.4511699552e+02 -2.9347309958e+02 +9.1504094294e+02 9.9177050215e+02 1.0000000000e+01 0.0000e+00 1.0000e+00
 -5000521  1    3    3    0    0 -3.1425414081e+02 +3.0178623714e+02 +4.1882889830e+03 4.2109019465e+03 1.0000000000e+01 0.0000e+00 -1.0000e+00
       21  1    1    2  502  501 +6.9137145291e+01 -8.3131375595e+00 +3.4724268722e+02 3.5415609121e+02 0.0000000000e+00 0.0000e+00 -1.0000e+00
<mgrwt>
<rscale>  1 0.10118420E+04</rscale>
<asrwt>0</asrwt>
<pdfrwt beam="1">  1        2 0.84672272E+00 0.10118420E+04</pdfrwt>
<pdfrwt beam="2">  1       -2 0.81735372E-02 0.10118420E+04</pdfrwt>
<totfact> 0.64512283E-01</totfact>
</mgrwt>
</event>
<event>
 6      1 +3.0741590e+01 1.00464400e+03 7.81860800e-03 9.30346600e-02
       -1 -1    0    0    0  501 -0.0000000000e+00 +0.0000000000e+00 +2.6102044476e+02 2.6102044476e+02 0.0000000000e+00 0.0000e+00 -1.0000e+00
        1 -1    0    0  502    0 +0.0000000000e+00 -0.0000000000e+00 -1.0712621705e+03 1.0712621705e+03 0.0000000000e+00 0.0000e+00 1.0000e+00
  5000001  2    1    2    0    0 -1.1619606677e+01 -4.9302953823e+01 -7.5086708949e+02 1.2542368342e+03 1.0033657626e+03 0.0000e+00 0.0000e+00
  5000521  1    3    3    0    0 +2.4586722392e+02 -2.6743145579e+02 -8.3122521364e+02 9.0719657800e+02 1.0000000000e+01 0.0000e+00 1.0000e+00
 -5000521  1    3    3    0    0 -2.5748683060e+02 +2.1812850196e+02 +8.0358124147e+01 3.4704025619e+02 1.0000000000e+01 0.0000e+00 -1.0000e+00
       21  1    1    2  502  501 +1.1619606677e+01 +4.9302953823e+01 -5.9374636273e+01 7.8045781100e+01 0.0000000000e+00 0.0000e+00 -1.0000e+00
<mgrwt>
<rscale>  1 0.10046435E+04</rscale>
<asrwt>0</asrwt>
<pdfrwt beam="1">  1        1 0.16480956E+00 0.10046435E+04</pdfrwt>
<pdfrwt beam="2">  1       -1 0.40156992E-01 0.10046435E+04</pdfrwt>
<totfact> 0.80752267E+01</totfact>
</mgrwt>
</event>
<event>
 6      1 +3.0741590e+01 1.00843000e+03 7.81860800e-03 9.29934700e-02
        2 -1    0    0  502    0 +0.0000000000e+00 +0.0000000000e+00 +4.1121074750e+02 4.1121074750e+02 0.0000000000e+00 0.0000e+00 -1.0000e+00
       -2 -1    0    0    0  501 -0.0000000000e+00 -0.0000000000e+00 -7.8015273003e+02 7.8015273003e+02 0.0000000000e+00 0.0000e+00 1.0000e+00
  5000001  2    1    2    0    0 -1.0890487548e+02 +5.8690758256e+01 -3.1582084706e+02 1.0567279249e+03 1.0008127811e+03 0.0000e+00 0.0000e+00
  5000521  1    3    3    0    0 +3.2477286843e+02 +2.1144012839e+02 +1.3715058947e+02 4.1121117221e+02 1.0000000000e+01 0.0000e+00 -1.0000e+00
 -5000521  1    3    3    0    0 -4.3367774391e+02 -1.5274937013e+02 -4.5297143653e+02 6.4551675265e+02 1.0000000000e+01 0.0000e+00 1.0000e+00
       21  1    1    2  502  501 +1.0890487548e+02 -5.8690758256e+01 -5.3121135476e+01 1.3463555267e+02 0.0000000000e+00 0.0000e+00 -1.0000e+00
<mgrwt>
<rscale>  1 0.10084300E+04</rscale>
<asrwt>0</asrwt>
<pdfrwt beam="1">  1        2 0.63263192E-01 0.10084300E+04</pdfrwt>
<pdfrwt beam="2">  1       -2 0.12002350E+00 0.10084300E+04</pdfrwt>
<totfact> 0.40758020E+01</totfact>
</mgrwt>
</event>
<event>
 6      1 +3.0741590e+01 1.00116900e+03 7.81860800e-03 9.30726400e-02
        2 -1    0    0  502    0 -0.0000000000e+00 +0.0000000000e+00 +2.8607412787e+03 2.8607412787e+03 0.0000000000e+00 0.0000e+00 -1.0000e+00
       21 -1    0    0  501  502 +0.0000000000e+00 -0.0000000000e+00 -1.0755499381e+02 1.0755499381e+02 0.0000000000e+00 0.0000e+00 1.0000e+00
  5000001  2    1    2    0    0 -6.6859344169e+01 -3.2305019378e+01 +2.6917921668e+03 2.8719478220e+03 9.9841145668e+02 0.0000e+00 0.0000e+00
  5000521  1    3    3    0    0 -4.7228357958e+02 -1.8362156337e+02 +9.4508543045e+02 1.0724062332e+03 1.0000000000e+01 0.0000e+00 1.0000e+00
 -5000521  1    3    3    0    0 +4.0542423541e+02 +1.5131654399e+02 +1.7467067363e+03 1.7995415888e+03 1.0000000000e+01 0.0000e+00 -1.0000e+00
        2  1    1    2  501    0 +6.6859344169e+01 +3.2305019378e+01 +6.1394118058e+01 9.6348450491e+01 0.0000000000e+00 0.0000e+00 -1.0000e+00
<mgrwt>
<rscale>  1 0.10011689E+04</rscale>
<asrwt>0</asrwt>
<pdfrwt beam="1">  1       21 0.16546924E-01 0.10011689E+04</pdfrwt>
<pdfrwt beam="2">  1        2 0.44011399E+00 0.10011689E+04</pdfrwt>
<totfact> 0.85025211E+02</totfact>
</mgrwt>
</event>
<event>
 6      1 +3.0741590e+01 1.01854400e+03 7.81860800e-03 9.28843600e-02
        1 -1    0    0  502    0 +0.0000000000e+00 +0.0000000000e+00 +2.6653162417e+03 2.6653162417e+03 0.0000000000e+00 0.0000e+00 -1.0000e+00
       -1 -1    0    0    0  501 -0.0000000000e+00 -0.0000000000e+00 -7.9366005820e+02 7.9366005820e+02 0.0000000000e+00 0.0000e+00 1.0000e+00
  5000001  2    1    2    0    0 -2.2514322951e+01 -1.8355217224e+02 +2.5552714130e+03 2.7507898297e+03 1.0016158937e+03 0.0000e+00 0.0000e+00
  5000521  1    3    3    0    0 -1.4265462425e+02 +1.8969195907e+02 +2.2260912154e+03 2.2387307745e+03 1.0000000000e+01 0.0000e+00 -1.0000e+00
 -5000521  1    3    3    0    0 +1.2014030130e+02 -3.7324413132e+02 +3.2918019753e+02 5.1205905519e+02 1.0000000000e+01 0.0000e+00 1.0000e+00
       21  1    1    2  502  501 +2.2514322951e+01 +1.8355217224e+02 -6.8361522946e+02 7.0818647023e+02 0.0000000000e+00 0.0000e+00 1.0000e+00
<mgrwt>
<rscale>  1 0.10185444E+04</rscale>
<asrwt>0</asrwt>
<pdfrwt beam="1">  1        1 0.41004865E+00 0.10185444E+04</pdfrwt>
<pdfrwt beam="2">  1       -1 0.12210155E+00 0.10185444E+04</pdfrwt>
<totfact> 0.62698685E-01</totfact>
</mgrwt>
</event>
<event>
 6      1 +3.0741590e+01 1.01159200e+03 7.81860800e-03 9.29592100e-02
        1 -1    0    0  502    0 +0.0000000000e+00 +0.0000000000e+00 +2.2830271151e+03 2.2830271151e+03 0.0000000000e+00 0.0000e+00 1.0000e+00
       -1 -1    0    0    0  501 -0.0000000000e+00 -0.0000000000e+00 -4.5598715483e+02 4.5598715483e+02 0.0000000000e+00 0.0000e+00 -1.0000e+00
  5000001  2    1    2    0    0 +1.5008470575e+01 -1.4330335028e+02 +1.1182068722e+02 1.0177536101e+03 1.0012779037e+03 0.0000e+00 0.0000e+00
  5000521  1    3    3    0    0 +3.7203224128e+02 -1.2813814851e+02 -2.8326648155e+02 4.8494048422e+02 1.0000000000e+01 0.0000e+00 -1.0000e+00
 -5000521  1    3    3    0    0 -3.5702377071e+02 -1.5165201765e+01 +3.9508716878e+02 5.3281312590e+02 1.0000000000e+01 0.0000e+00 1.0000e+00
       21  1    1    2  502  501 -1.5008470575e+01 +1.4330335028e+02 +1.7152192730e+03 1.7212606598e+03 0.0000000000e+00 0.0000e+00 1.0000e+00
<mgrwt>
<rscale>  1 0.10115921E+04</rscale>
<asrwt>0</asrwt>
<pdfrwt beam="1">  1        1 0.35123493E+00 0.10115921E+04</pdfrwt>
<pdfrwt beam="2">  1       -1 0.70151871E-01 0.10115921E+04</pdfrwt>
<totfact> 0.39809538E+00</totfact>
</mgrwt>
</event>
<event>
 6      1 +3.0741590e+01 9.97515000e+02 7.81860800e-03 9.31127500e-02
       -2 -1    0    0    0  501 -0.0000000000e+00 +0.0000000000e+00 +6.2709373363e+02 6.2709373363e+02 0.0000000000e+00 0.0000e+00 1.0000e+00
        2 -1    0    0  502    0 +0.0000000000e+00 -0.0000000000e+00 -9.2634083854e+02 9.2634083854e+02 0.0000000000e+00 0.0000e+00 -1.0000e+00
  5000001  2    1    2    0    0 +4.0931049971e+01 +1.6839006782e+01 +2.2889612190e+02 1.0234400712e+03 9.9653260948e+02 0.0000e+00 0.0000e+00
  5000521  1    3    3    0    0 -4.8333084264e+01 -4.2510205008e+02 +3.5404135993e+02 5.5542157372e+02 1.0000000000e+01 0.0000e+00 1.0000e+00
 -5000521  1    3    3    0    0 +8.9264134235e+01 +4.4194105686e+02 -1.2514523803e+02 4.6801849750e+02 1.0000000000e+01 0.0000e+00 -1.0000e+00
       21  1    1    2  502  501 -4.0931049971e+01 -1.6839006782e+01 -5.2814322681e+02 5.2999450094e+02 0.0000000000e+00 0.0000e+00 -1.0000e+00
<mgrwt>
<rscale>  1 0.99751498E+03</rscale>
<asrwt>0</asrwt>
<pdfrwt beam="1">  1        2 0.14251397E+00 0.99751498E+03</pdfrwt>
<pdfrwt beam="2">  1       -2 0.96475959E-01 0.99751498E+03</pdfrwt>
<totfact> 0.25169711E+01</totfact>
</mgrwt>
</event>
<event>
 6      1 +3.0741590e+01 9.94259800e+02 7.81860800e-03 9.31486300e-02
       -1 -1    0    0    0  501 -0.0000000000e+00 +0.0000000000e+00 +5.7264562671e+02 5.7264562671e+02 0.0000000000e+00 0.0000e+00 -1.0000e+00
        1 -1    0    0  502    0 +0.0000000000e+00 -0.0000000000e+00 -7.6723256170e+02 7.6723256170e+02 0.0000000000e+00 0.0000e+00 1.0000e+00
  5000001  2    1    2    0    0 -3.9253833591e+01 +1.9501867999e+01 +1.3855288732e+02 1.0038672845e+03 9.9329322764e+02 0.0000e+00 0.0000e+00
  5000521  1    3    3    0    0 +2.6521369160e+02 -2.4846158369e+02 -2.5070515263e+02 4.4161582211e+02 1.0000000000e+01 0.0000e+00 1.0000e+00
 -5000521  1    3    3    0    0 -3.0446752520e+02 +2.6796345169e+02 +3.8925803994e+02 5.6225146243e+02 1.0000000000e+01 0.0000e+00 -1.0000e+00
       21  1    1    2  502  501 +3.9253833591e+01 -1.9501867999e+01 -3.3313982231e+02 3.3601090386e+02 0.0000000000e+00 0.0000e+00 1.0000e+00
<mgrwt>
<rscale>  1 0.99425984E+03</rscale>
<asrwt>0</asrwt>
<pdfrwt beam="1">  1        1 0.11803578E+00 0.99425984E+03</pdfrwt>
<pdfrwt beam="2">  1       -1 0.88099328E-01 0.99425984E+03</pdfrwt>
<totfact> 0.30013391E+01</totfact>
</mgrwt>
</event>
<event>
 6      1 +3.0741590e+01 1.00472400e+03 7.81860800e-03 9.30337800e-02
        1 -1    0    0  502    0 -0.0000000000e+00 +0.0000000000e+00 +1.8934862249e+03 1.8934862249e+03 0.0000000000e+00 0.0000e+00 1.0000e+00
       21 -1    0    0  501  502 +0.0000000000e+00 -0.0000000000e+00 -1.8531147003e+02 1.8531147003e+02 0.0000000000e+00 0.0000e+00 -1.0000e+00
  5000001  2    1    2    0    0 +2.0881013933e+01 -2.1966394888e+01 +1.7554505673e+03 2.0226412912e+03 1.0042671753e+03 0.0000e+00 0.0000e+00
  5000521  1    3    3    0    0 -3.8292172457e+02 +6.6713093734e+00 +2.3556836399e+02 4.4973993333e+02 1.0000000000e+01 0.0000e+00 -1.0000e+00
 -5000521  1    3    3    0    0 +4.0380273850e+02 -2.8637704261e+01 +1.5198822033e+03 1.5729013579e+03 1.0000000000e+01 0.0000e+00 1.0000e+00
        1  1    1    2  501    0 -2.0881013933e+01 +2.1966394888e+01 -4.7275812373e+01 5.6156403756e+01 0.0000000000e+00 0.0000e+00 1.0000e+00
<mgrwt>
<rscale>  1 0.10047244E+04</rscale>
<asrwt>0</asrwt>
<pdfrwt beam="1">  1       21 0.28509458E-01 0.10047244E+04</pdfrwt>
<pdfrwt beam="2">  1        1 0.29130556E+00 0.10047244E+04</pdfrwt>
<totfact> 0.42317541E+02</totfact>
</mgrwt>
</event>
<event>
 6      1 +3.0741590e+01 1.02661600e+03 7.81860800e-03 9.27982500e-02
       -2 -1    0    0    0  501 -0.0000000000e+00 +0.0000000000e+00 +1.4413147823e+02 1.4413147823e+02 0.0000000000e+00 0.0000e+00 -1.0000e+00
        2 -1    0    0  502    0 +0.0000000000e+00 -0.0000000000e+00 -2.4819659837e+03 2.4819659837e+03 0.0000000000e+00 0.0000e+00 1.0000e+00
  5000001  2    1    2    0    0 +1.5743774762e+02 +3.9476082982e+00 -1.8815891715e+03 2.1434360560e+03 1.0144644340e+03 0.0000e+00 0.0000e+00
  5000521  1    3    3    0    0 +1.4164101872e+02 -4.7697017529e+02 -1.2778739264e+03 1.3713586322e+03 1.0000000000e+01 0.0000e+00 1.0000e+00
 -5000521  1    3    3    0    0 +1.5796728897e+01 +4.8091778359e+02 -6.0371524505e+02 7.7207742379e+02 1.0000000000e+01 0.0000e+00 -1.0000e+00
       21  1    1    2  502  501 -1.5743774762e+02 -3.9476082982e+00 -4.5624533396e+02 4.8266140590e+02 0.0000000000e+00 0.0000e+00 -1.0000e+00
<mgrwt>
<rscale>  1 0.10266160E+04</rscale>
<asrwt>0</asrwt>
<pdfrwt beam="1">  1        2 0.38184090E+00 0.10266160E+04</pdfrwt>
<pdfrwt beam="2">  1       -2 0.22174075E-01 0.10266160E+04</pdfrwt>
<totfact> 0.63959359E+01</totfact>
</mgrwt>
</event>
<event>
 6      1 +3.0741590e+01 1.04669300e+03 7.81860800e-03 9.25876500e-02
        2 -1    0    0  502    0 -0.0000000000e+00 +0.0000000000e+00 +8.1329929705e+02 8.1329929705e+02 0.0000000000e+00 0.0000e+00 -1.0000e+00
       21 -1    0    0  501  502 +0.0000000000e+00 -0.0000000000e+00 -3.7114512069e+02 3.7114512069e+02 0.0000000000e+00 0.0000e+00 1.0000e+00
  5000001  2    1    2    0    0 +3.7294429212e+01 +1.7994424223e+01 +4.5467880919e+02 1.1411831165e+03 1.0458735164e+03 0.0000e+00 0.0000e+00
  5000521  1    3    3    0    0 -3.9012394182e+02 +1.6858643166e+02 -8.7978460562e+01 4.3411782323e+02 1.0000000000e+01 0.0000e+00 1.0000e+00
 -5000521  1    3    3    0    0 +4.2741837103e+02 -1.5059200743e+02 +5.4265726976e+02 7.0706529332e+02 1.0000000000e+01 0.0000e+00 -1.0000e+00
        2  1    1    2  501    0 -3.7294429212e+01 -1.7994424223e+01 -1.2524632839e+01 4.3261301195e+01 0.0000000000e+00 0.0000e+00 -1.0000e+00
<mgrwt>
<rscale>  1 0.10466929E+04</rscale>
<asrwt>0</asrwt>
<pdfrwt beam="1">  1       21 0.57099249E-01 0.10466929E+04</pdfrwt>
<pdfrwt beam="2">  1        2 0.12512297E+00 0.10466929E+04</pdfrwt>
<totfact> 0.10587779E+03</totfact>
</mgrwt>
</event>
<event>
 6      1 +3.0741590e+01 1.00303400e+03 7.81860800e-03 9.30522400e-02
       -3 -1    0    0    0  501 -0.0000000000e+00 +0.0000000000e+00 +2.2426005373e+03 2.2426005373e+03 0.0000000000e+00 0.0000e+00 1.0000e+00
        3 -1    0    0  502    0 +0.0000000000e+00 -0.0000000000e+00 -1.2721724868e+02 1.2721724868e+02 0.0000000000e+00 0.0000e+00 -1.0000e+00
  5000001  2    1    2    0    0 -3.5987709690e+01 +1.3434451483e+01 +2.1021533660e+03 2.3291898327e+03 1.0022978114e+03 0.0000e+00 0.0000e+00
  5000521  1    3    3    0    0 -4.6090720529e+02 +2.3826362957e+02 +9.9727336202e+02 1.1242149117e+03 1.0000000000e+01 0.0000e+00 -1.0000e+00
 -5000521  1    3    3    0    0 +4.2491949560e+02 -2.2482917809e+02 +1.1048800040e+03 1.2049749210e+03 1.0000000000e+01 0.0000e+00 1.0000e+00
       21  1    1    2  502  501 +3.5987709690e+01 -1.3434451483e+01 +1.3229922614e+01 4.0627953280e+01 0.0000000000e+00 0.0000e+00 1.0000e+00
<mgrwt>
<rscale>  1 0.10030336E+04</rscale>
<asrwt>0</asrwt>
<pdfrwt beam="1">  1        3 0.19571886E-01 0.10030336E+04</pdfrwt>
<pdfrwt beam="2">  1       -3 0.34501544E+00 0.10030336E+04</pdfrwt>
<totfact> 0.13581014E+00</totfact>
</mgrwt>
</event>
<event>
 6      1 +3.0741590e+01 9.83837000e+02 7.81860800e-03 9.32645200e-02
       -2 -1    0    0    0  501 -0.0000000000e+00 +0.0000000000e+00 +7.1108311177e+02 7.1108311177e+02 0.0000000000e+00 0.0000e+00 1.0000e+00
        2 -1    0    0  502    0 +0.0000000000e+00 -0.0000000000e+00 -4.0730106729e+02 4.0730106729e+02 0.0000000000e+00 0.0000e+00 -1.0000e+00
  5000001  2    1    2    0    0 -3.6238039847e+01 +3.6527121479e-02 +3.6324206709e+02 1.0487516353e+03 9.8316936298e+02 0.0000e+00 0.0000e+00
  5000521  1    3    3    0    0 -3.5862682763e+02 -3.4889656740e+02 +2.5387876628e+02 5.6115634560e+02 1.0000000000e+01 0.0000e+00 -1.0000e+00
 -5000521  1    3    3    0    0 +3.2238878778e+02 +3.4893309452e+02 +1.0936330081e+02 4.8759528967e+02 1.0000000000e+01 0.0000e+00 1.0000e+00
       21  1    1    2  502  501 +3.6238039847e+01 -3.6527121479e-02 -5.9460022615e+01 6.9632543797e+01 0.0000000000e+00 0.0000e+00 -1.0000e+00
<mgrwt>
<rscale>  1 0.98383697E+03</rscale>
<asrwt>0</asrwt>
<pdfrwt beam="1">  1        2 0.62661703E-01 0.98383697E+03</pdfrwt>
<pdfrwt beam="2">  1       -2 0.10939740E+00 0.98383697E+03</pdfrwt>
<totfact> 0.51791218E+01</totfact>
</mgrwt>
</event>
<event>
 6      1 +3.0741590e+01 9.98738300e+02 7.81860800e-03 9.30993000e-02
        2 -1    0    0  502    0 +0.0000000000e+00 +0.0000000000e+00 +5.2653115596e+02 5.2653115596e+02 0.0000000000e+00 0.0000e+00 1.0000e+00
       -2 -1    0    0    0  501 -0.0000000000e+00 -0.0000000000e+00 -5.2869402474e+02 5.2869402474e+02 0.0000000000e+00 0.0000e+00 -1.0000e+00
  5000001  2    1    2    0    0 +1.9363455386e+01 +1.7270472252e+01 -5.0875657250e+01 1.0000332576e+03 9.9840120751e+02 0.0000e+00 0.0000e+00
  5000521  1    3    3    0    0 -1.8435056998e+02 -2.5879906095e+02 +3.4964285157e+02 4.7255921349e+02 1.0000000000e+01 0.0000e+00 1.0000e+00
 -5000521  1    3    3    0    0 +2.0371402537e+02 +2.7606953320e+02 -4.0051850882e+02 5.2747404410e+02 1.0000000000e+01 0.0000e+00 -1.0000e+00
       21  1    1    2  502  501 -1.9363455386e+01 -1.7270472252e+01 +4.8712788471e+01 5.5191923113e+01 0.0000000000e+00 0.0000e+00 -1.0000e+00
<mgrwt>
<rscale>  1 0.99873830E+03</rscale>
<asrwt>0</asrwt>
<pdfrwt beam="1">  1        2 0.81004793E-01 0.99873830E+03</pdfrwt>
<pdfrwt beam="2">  1       -2 0.81337543E-01 0.99873830E+03</pdfrwt>
<totfact> 0.77069975E+01</totfact>
</mgrwt>
</event>
<event>
 6      1 +3.0741590e+01 9.98376800e+02 7.81860800e-03 9.31032700e-02
       21 -1    0    0  501  502 +0.0000000000e+00 +0.0000000000e+00 +7.8836247567e+01 7.8836247567e+01 0.0000000000e+00 0.0000e+00 -1.0000e+00
        2 -1    0    0  502    0 -0.0000000000e+00 -0.0000000000e+00 -3.4885181390e+03 3.4885181390e+03 0.0000000000e+00 0.0000e+00 1.0000e+00
  5000001  2    1    2    0    0 -2.0731464616e+01 -6.5842916186e+00 -3.3999885620e+03 3.5435403748e+03 9.9813977943e+02 0.0000e+00 0.0000e+00
  5000521  1    3    3    0    0 -2.5971235140e+00 -2.0013374762e+01 -3.4696049728e+03 3.4696780755e+03 1.0000000000e+01 0.0000e+00 1.0000e+00
 -5000521  1    3    3    0    0 -1.8134341102e+01 +1.3429083144e+01 +6.9616410799e+01 7.3862299272e+01 1.0000000000e+01 0.0000e+00 -1.0000e+00
        2  1    1    2  501    0 +2.0731464616e+01 +6.5842916186e+00 -9.6933293691e+00 2.3814011747e+01 0.0000000000e+00 0.0000e+00 1.0000e+00
<mgrwt>
<rscale>  1 0.99837677E+03</rscale>
<asrwt>0</asrwt>
<pdfrwt beam="1">  1       21 0.12128653E-01 0.99837677E+03</pdfrwt>
<pdfrwt beam="2">  1        2 0.53669511E+00 0.99837677E+03</pdfrwt>
<totfact> 0.60372409E+02</totfact>
</mgrwt>
</event>
<event>
 6      1 +3.0741590e+01 1.00067700e+03 7.81860800e-03 9.30780200e-02
       -2 -1    0    0    0  501 -0.0000000000e+00 +0.0000000000e+00 +3.3611263505e+02 3.3611263505e+02 0.0000000000e+00 0.0000e+00 -1.0000e+00
        2 -1    0    0  502    0 +0.0000000000e+00 -0.0000000000e+00 -8.1357644183e+02 8.1357644183e+02 0.0000000000e+00 0.0000e+00 1.0000e+00
  5000001  2    1    2    0    0 +3.9457252552e+01 +6.4932711052e+00 -4.7954313812e+02 1.1096470868e+03 9.9987799188e+02 0.0000e+00 0.0000e+00
  5000521  1    3    3    0    0 -8.3625884132e+01 +1.3644123788e+01 +3.0433551035e+02 3.1606890621e+02 1.0000000000e+01 0.0000e+00 -1.0000e+00
 -5000521  1    3    3    0    0 +1.2308313668e+02 -7.1508526824e+00 -7.8387864847e+02 7.9357818062e+02 1.0000000000e+01 0.0000e+00 1.0000e+00
       21  1    1    2  502  501 -3.9457252552e+01 -6.4932711052e+00 +2.0793313388e+00 4.0041990053e+01 0.0000000000e+00 0.0000e+00 -1.0000e+00
<mgrwt>
<rscale>  1 0.10006773E+04</rscale>
<asrwt>0</asrwt>
<pdfrwt beam="1">  1        2 0.12516561E+00 0.10006773E+04</pdfrwt>
<pdfrwt beam="2">  1       -2 0.51709636E-01 0.10006773E+04</pdfrwt>
<totfact> 0.11873638E+02</totfact>
</mgrwt>
</event>
<event>
 6      1 +3.0741590e+01 1.00151500e+03 7.81860800e-03 9.30688400e-02
       -1 -1    0    0    0  501 -0.0000000000e+00 +0.0000000000e+00 +9.0530815673e+02 9.0530815673e+02 0.0000000000e+00 0.0000e+00 1.0000e+00
        1 -1    0    0  502    0 +0.0000000000e+00 -0.0000000000e+00 -3.0056248342e+02 3.0056248342e+02 0.0000000000e+00 0.0000e+00 -1.0000e+00
  5000001  2    1    2    0    0 -3.7587365291e+01 -1.7980127385e+01 +5.8356901964e+02 1.1591315166e+03 1.0006482784e+03 0.0000e+00 0.0000e+00
  5000521  1    3    3    0    0 -1.1978440605e+02 -4.7934201028e+02 +4.5821091038e+02 6.7392455449e+02 1.0000000000e+01 0.0000e+00 1.0000e+00
 -5000521  1    3    3    0    0 +8.2197040762e+01 +4.6136188290e+02 +1.2535810925e+02 4.8520696209e+02 1.0000000000e+01 0.0000e+00 -1.0000e+00
       21  1    1    2  502  501 +3.7587365291e+01 +1.7980127385e+01 +2.1176653678e+01 4.6739123562e+01 0.0000000000e+00 0.0000e+00 1.0000e+00
<mgrwt>
<rscale>  1 0.10015154E+04</rscale>
<asrwt>0</asrwt>
<pdfrwt beam="1">  1        1 0.46240382E-01 0.10015154E+04</pdfrwt>
<pdfrwt beam="2">  1       -1 0.13927818E+00 0.10015154E+04</pdfrwt>
<totfact> 0.37265967E+01</totfact>
</mgrwt>
</event>
<event>
 6      1 +3.0741590e+01 1.03163100e+03 7.81860800e-03 9.27451700e-02
       -2 -1    0    0    0  501 -0.0000000000e+00 +0.0000000000e+00 +1.2010120037e+03 1.2010120037e+03 0.0000000000e+00 0.0000e+00 1.0000e+00
        2 -1    0    0  502    0 +0.0000000000e+00 -0.0000000000e+00 -2.5414542164e+02 2.5414542164e+02 0.0000000000e+00 0.0000e+00 -1.0000e+00
  5000001  2    1    2    0    0 -4.4973380065e+01 -1.7176941386e+01 +8.1481861237e+02 1.3146073683e+03 1.0305074039e+03 0.0000e+00 0.0000e+00
  5000521  1    3    3    0    0 -9.6708510278e+01 +1.3893235951e+02 +1.0298461698e+03 1.0437134999e+03 1.0000000000e+01 0.0000e+00 1.0000e+00
 -5000521  1    3    3    0    0 +5.1735130212e+01 -1.5610930090e+02 -2.1502755738e+02 2.7089386844e+02 1.0000000000e+01 0.0000e+00 -1.0000e+00
       21  1    1    2  502  501 +4.4973380065e+01 +1.7176941386e+01 +1.3204796974e+02 1.4055005707e+02 0.0000000000e+00 0.0000e+00 -1.0000e+00
<mgrwt>
<rscale>  1 0.10316313E+04</rscale>
<asrwt>0</asrwt>
<pdfrwt beam="1">  1        2 0.39099296E-01 0.10316313E+04</pdfrwt>
<pdfrwt beam="2">  1       -2 0.18477108E+00 0.10316313E+04</pdfrwt>
<totfact> 0.22127180E+01</totfact>
</mgrwt>
</event>
<event>
 6      1 +3.0741590e+01 1.01144200e+03 7.81860800e-03 9.29608400e-02
       21 -1    0    0  501  502 +0.0000000000e+00 +0.0000000000e+00 +2.1482964317e+03 2.1482964317e+03 0.0000000000e+00 0.0000e+00 -1.0000e+00
       -2 -1    0    0    0  501 -0.0000000000e+00 -0.0000000000e+00 -2.7228981278e+02 2.7228981278e+02 0.0000000000e+00 0.0000e+00 1.0000e+00
  5000001  2    1    2    0    0 +1.0515919955e+01 -1.5002836945e+02 +6.8837209205e+02 1.2234668412e+03 1.0001979195e+03 0.0000e+00 0.0000e+00
  5000521  1    3    3    0    0 +1.9617447200e+02 +7.6834495850e+01 -1.9832255515e+02 2.8951649192e+02 1.0000000000e+01 0.0000e+00 1.0000e+00
 -5000521  1    3    3    0    0 -1.8565855204e+02 -2.2686286530e+02 +8.8669464720e+02 9.3395034930e+02 1.0000000000e+01 0.0000e+00 -1.0000e+00
       -2  1    1    2    0  502 -1.0515919955e+01 +1.5002836945e+02 +1.1876345269e+03 1.1971194033e+03 0.0000000000e+00 0.0000e+00 1.0000e+00
<mgrwt>
<rscale>  1 0.10114420E+04</rscale>
<asrwt>0</asrwt>
<pdfrwt beam="1">  1       21 0.33050713E+00 0.10114420E+04</pdfrwt>
<pdfrwt beam="2">  1       -2 0.41890742E-01 0.10114420E+04</pdfrwt>
<totfact> 0.66182296E+00</totfact>
</mgrwt>
</event>
<event>
 6      1 +3.0741590e+01 1.00188200e+03 7.81860800e-03 9.30648300e-02
        2 -1    0    0  502    0 +0.0000000000e+00 +0.0000000000e+00 +5.2364353304e+02 5.2364353304e+02 0.0000000000e+00 0.0000e+00 -1.0000e+00
       -2 -1    0    0    0  501 -0.0000000000e+00 -0.0000000000e+00 -1.6125493648e+03 1.6125493648e+03 0.0000000000e+00 0.0000e+00 1.0000e+00
  5000001  2    1    2    0    0 +8.1096700115e+01 +7.0736943559e+01 -1.4482836943e+03 1.7610491414e+03 9.9608635638e+02 0.0000e+00 0.0000e+00
  5000521  1    3    3    0    0 -2.2971461547e+02 +4.5264892896e+02 -6.8417820400e+02 8.5197398568e+02 1.0000000000e+01 0.0000e+00 -1.0000e+00
 -5000521  1    3    3    0    0 +3.1081131558e+02 -3.8191198540e+02 -7.6410549025e+02 9.0907515571e+02 1.0000000000e+01 0.0000e+00 1.0000e+00
       21  1    1    2  502  501 -8.1096700115e+01 -7.0736943559e+01 +3.5937786249e+02 3.7514375645e+02 0.0000000000e+00 0.0000e+00 1.0000e+00
<mgrwt>
<rscale>  1 0.10018824E+04</rscale>
<asrwt>0</asrwt>
<pdfrwt beam="1">  1        2 0.80560544E-01 0.10018824E+04</pdfrwt>
<pdfrwt beam="2">  1       -2 0.24808452E+00 0.10018824E+04</pdfrwt>
<totfact> 0.38497508E+00</totfact>
</mgrwt>
</event>
<event>
 6      1 +3.0741590e+01 1.12308100e+03 7.81860800e-03 9.18298300e-02
        2 -1    0    0  502    0 -0.0000000000e+00 +0.0000000000e+00 +5.6276005952e+02 5.6276005952e+02 0.0000000000e+00 0.0000e+00 -1.0000e+00
       21 -1    0    0  501  502 +0.0000000000e+00 -0.0000000000e+00 -6.7944633147e+02 6.7944633147e+02 0.0000000000e+00 0.0000e+00 1.0000e+00
  5000001  2    1    2    0    0 -1.9945370002e+01 +5.4173152842e+01 -1.2563867964e+01 1.1231516839e+03 1.1215967662e+03 0.0000e+00 0.0000e+00
  5000521  1    3    3    0    0 -2.2662294769e+01 -4.7913438707e+02 +2.3599440556e+02 5.3467438683e+02 1.0000000000e+01 0.0000e+00 -1.0000e+00
 -5000521  1    3    3    0    0 +2.7169247666e+00 +5.3330753991e+02 -2.4855827353e+02 5.8847729705e+02 1.0000000000e+01 0.0000e+00 1.0000e+00
        2  1    1    2  501    0 +1.9945370002e+01 -5.4173152842e+01 -1.0412240398e+02 1.1905470711e+02 0.0000000000e+00 0.0000e+00 -1.0000e+00
<mgrwt>
<rscale>  1 0.11230814E+04</rscale>
<asrwt>0</asrwt>
<pdfrwt beam="1">  1       21 0.10453020E+00 0.11230814E+04</pdfrwt>
<pdfrwt beam="2">  1        2 0.86578471E-01 0.11230814E+04</pdfrwt>
<totfact> 0.40515373E+02</totfact>
</mgrwt>
</event>
<event>
 6      1 +3.0741590e+01 1.02341100e+03 7.81860800e-03 9.28323500e-02
       -1 -1    0    0    0  501 -0.0000000000e+00 +0.0000000000e+00 +1.7073842031e+03 1.7073842031e+03 0.0000000000e+00 0.0000e+00 1.0000e+00
        1 -1    0    0  502    0 +0.0000000000e+00 -0.0000000000e+00 -1.9775990823e+02 1.9775990823e+02 0.0000000000e+00 0.0000e+00 -1.0000e+00
  5000001  2    1    2    0    0 +1.2254954998e+02 -6.4122675695e+01 +1.3125793158e+03 1.6644018559e+03 1.0140211872e+03 0.0000e+00 0.0000e+00
  5000521  1    3    3    0    0 -3.5304938249e+02 -1.5572686361e+02 +1.6694902512e+02 4.2055522766e+02 1.0000000000e+01 0.0000e+00 -1.0000e+00
 -5000521  1    3    3    0    0 +4.7559893248e+02 +9.1604187916e+01 +1.1456302906e+03 1.2438466283e+03 1.0000000000e+01 0.0000e+00 1.0000e+00
       21  1    1    2  502  501 -1.2254954998e+02 +6.4122675695e+01 +1.9704497913e+02 2.4074225541e+02 0.0000000000e+00 0.0000e+00 -1.0000e+00
<mgrwt>
<rscale>  1 0.10234105E+04</rscale>
<asrwt>0</asrwt>
<pdfrwt beam="1">  1        1 0.30424602E-01 0.10234105E+04</pdfrwt>
<pdfrwt beam="2">  1       -1 0.26267448E+00 0.10234105E+04</pdfrwt>
<totfact> 0.87711416E+00</totfact>
</mgrwt>
</event>
<event>
 6      1 +3.0741590e+01 9.82422500e+02 7.81860800e-03 9.32803600e-02
        5 -1    0    0  502    0 +0.0000000000e+00 +0.0000000000e+00 +4.1075859902e+02 4.1075859902e+02 0.0000000000e+00 0.0000e+00 -1.0000e+00
       -5 -1    0    0    0  501 -0.0000000000e+00 -0.0000000000e+00 -6.2204784848e+02 6.2204784848e+02 0.0000000000e+00 0.0000e+00 1.0000e+00
  5000001  2    1    2    0    0 +1.3224940834e+01 -2.2308949502e+01 -1.9333939268e+02 1.0012662248e+03 9.8208011076e+02 0.0000e+00 0.0000e+00
  5000521  1    3    3    0    0 +7.0775939662e+01 -5.5256326831e+01 +3.9698944077e+02 4.0714016183e+02 1.0000000000e+01 0.0000e+00 -1.0000e+00
 -5000521  1    3    3    0    0 -5.7550998828e+01 +3.2947377329e+01 -5.9032883345e+02 5.9412606301e+02 1.0000000000e+01 0.0000e+00 1.0000e+00
       21  1    1    2  502  501 -1.3224940834e+01 +2.2308949502e+01 -1.7949856771e+01 3.1540222669e+01 0.0000000000e+00 0.0000e+00 -1.0000e+00
<mgrwt>
<rscale>  1 0.98242248E+03</rscale>
<asrwt>0</asrwt>
<pdfrwt beam="1">  1        5 0.63193630E-01 0.98242248E+03</pdfrwt>
<pdfrwt beam="2">  1       -5 0.95699669E-01 0.98242248E+03</pdfrwt>
<totfact> 0.19395066E+00</totfact>
</mgrwt>
</event>
<event>
 6      1 +3.0741590e+01 9.91993100e+02 7.81860800e-03 9.31737100e-02
       21 -1    0    0  501  502 +0.0000000000e+00 +0.0000000000e+00 +1.6995890608e+02 1.6995890608e+02 0.0000000000e+00 0.0000e+00 1.0000e+00
        2 -1    0    0  502    0 -0.0000000000e+00 -0.0000000000e+00 -1.5497529948e+03 1.5497529948e+03 0.0000000000e+00 0.0000e+00 -1.0000e+00
  5000001  2    1    2    0    0 -7.9634842887e+00 +2.2722558854e+01 -1.3744628222e+03 1.6950511190e+03 9.9170081903e+02 0.0000e+00 0.0000e+00
  5000521  1    3    3    0    0 -2.1140572828e+02 +4.3503561379e+01 +7.6880305739e+01 2.2933713875e+02 1.0000000000e+01 0.0000e+00 1.0000e+00
 -5000521  1    3    3    0    0 +2.0344224399e+02 -2.0781002524e+01 -1.4513431279e+03 1.4657139802e+03 1.0000000000e+01 0.0000e+00 -1.0000e+00
        2  1    1    2  501    0 +7.9634842887e+00 -2.2722558854e+01 -5.3312665095e+00 2.4660781932e+01 0.0000000000e+00 0.0000e+00 -1.0000e+00
<mgrwt>
<rscale>  1 0.99199307E+03</rscale>
<asrwt>0</asrwt>
<pdfrwt beam="1">  1       21 0.26147524E-01 0.99199307E+03</pdfrwt>
<pdfrwt beam="2">  1        2 0.23842353E+00 0.99199307E+03</pdfrwt>
<totfact> 0.19230777E+03</totfact>
</mgrwt>
</event>
<event>
 6      1 +3.0741590e+01 9.98153100e+02 7.81860800e-03 9.31057300e-02
        1 -1    0    0  502    0 +0.0000000000e+00 +0.0000000000e+00 +1.1229538986e+03 1.1229538986e+03 0.0000000000e+00 0.0000e+00 1.0000e+00
       -1 -1    0    0    0  501 -0.0000000000e+00 -0.0000000000e+00 -5.5962926254e+02 5.5962926254e+02 0.0000000000e+00 0.0000e+00 -1.0000e+00
  5000001  2    1    2    0    0 -4.0595818697e+01 -2.8729143844e+01 +8.9895347799e+02 1.3432896248e+03 9.9691337455e+02 0.0000e+00 0.0000e+00
  5000521  1    3    3    0    0 +1.1348236129e+02 +7.6495915672e+01 -1.9225310702e+02 2.3620145766e+02 1.0000000000e+01 0.0000e+00 -1.0000e+00
 -5000521  1    3    3    0    0 -1.5407817999e+02 -1.0522505952e+02 +1.0912065850e+03 1.1070881672e+03 1.0000000000e+01 0.0000e+00 1.0000e+00
       21  1    1    2  502  501 +4.0595818697e+01 +2.8729143844e+01 -3.3562884196e+02 3.3929353628e+02 0.0000000000e+00 0.0000e+00 -1.0000e+00
<mgrwt>
<rscale>  1 0.99815312E+03</rscale>
<asrwt>0</asrwt>
<pdfrwt beam="1">  1        1 0.17276214E+00 0.99815312E+03</pdfrwt>
<pdfrwt beam="2">  1       -1 0.86096810E-01 0.99815312E+03</pdfrwt>
<totfact> 0.16279761E+01</totfact>
</mgrwt>
</event>
<event>
 6      1 +3.0741590e+01 1.00845000e+03 7.81860800e-03 9.29932500e-02
        1 -1    0    0  502    0 -0.0000000000e+00 +0.0000000000e+00 +1.1293558715e+03 1.1293558715e+03 0.0000000000e+00 0.0000e+00 1.0000e+00
       21 -1    0    0  501  502 +0.0000000000e+00 -0.0000000000e+00 -2.8473208557e+02 2.8473208557e+02 0.0000000000e+00 0.0000e+00 -1.0000e+00
  5000001  2    1    2    0    0 +8.2105325761e+00 -3.0359275008e+01 +8.9918414878e+02 1.3511123139e+03 1.0079599461e+03 0.0000e+00 0.0000e+00
  5000521  1    3    3    0    0 +1.4891910091e+02 +1.1356566100e+02 +1.0703796976e+03 1.0866861345e+03 1.0000000000e+01 0.0000e+00 1.0000e+00
 -5000521  1    3    3    0    0 -1.4070856833e+02 -1.4392493600e+02 -1.7119554883e+02 2.6442617939e+02 1.0000000000e+01 0.0000e+00 -1.0000e+00
        1  1    1    2  501    0 -8.2105325761e+00 +3.0359275008e+01 -5.4560362887e+01 6.2975643089e+01 0.0000000000e+00 0.0000e+00 1.0000e+00
<mgrwt>
<rscale>  1 0.10084505E+04</rscale>
<asrwt>0</asrwt>
<pdfrwt beam="1">  1       21 0.43804937E-01 0.10084505E+04</pdfrwt>
<pdfrwt beam="2">  1        1 0.17374706E+00 0.10084505E+04</pdfrwt>
<totfact> 0.59387013E+02</totfact>
</mgrwt>
</event>
<event>
 6      1 +3.0741590e+01 1.06690800e+03 7.81860800e-03 9.23806000e-02
        2 -1    0    0  502    0 +0.0000000000e+00 +0.0000000000e+00 +1.9478973602e+03 1.9478973602e+03 0.0000000000e+00 0.0000e+00 1.0000e+00
       -2 -1    0    0    0  501 -0.0000000000e+00 -0.0000000000e+00 -2.8859584819e+02 2.8859584819e+02 0.0000000000e+00 0.0000e+00 -1.0000e+00
  5000001  2    1    2    0    0 +1.2047249245e+02 -3.6281279596e+02 +1.4513355960e+03 1.8012960478e+03 9.9606510498e+02 0.0000e+00 0.0000e+00
  5000521  1    3    3    0    0 +4.7921221150e+02 -3.8705688981e+02 +5.3161481287e+02 8.1373932489e+02 1.0000000000e+01 0.0000e+00 1.0000e+00
 -5000521  1    3    3    0    0 -3.5873971905e+02 +2.4244093849e+01 +9.1972078313e+02 9.8755672294e+02 1.0000000000e+01 0.0000e+00 -1.0000e+00
       21  1    1    2  502  501 -1.2047249245e+02 +3.6281279596e+02 +2.0796591602e+02 4.3519716058e+02 0.0000000000e+00 0.0000e+00 1.0000e+00
<mgrwt>
<rscale>  1 0.10669079E+04</rscale>
<asrwt>0</asrwt>
<pdfrwt beam="1">  1        2 0.29967651E+00 0.10669079E+04</pdfrwt>
<pdfrwt beam="2">  1       -2 0.44399362E-01 0.10669079E+04</pdfrwt>
<totfact> 0.34267790E+01</totfact>
</mgrwt>
</event>
<event>
 6      1 +3.0741590e+01 1.00108200e+03 7.81860800e-03 9.30735900e-02
        2 -1    0    0  502    0 +0.0000000000e+00 +0.0000000000e+00 +8.4774175114e+02 8.4774175114e+02 0.0000000000e+00 0.0000e+00 1.0000e+00
       -2 -1    0    0    0  501 -0.0000000000e+00 -0.0000000000e+00 -4.3705384951e+02 4.3705384951e+02 0.0000000000e+00 0.0000e+00 -1.0000e+00
  5000001  2    1    2    0    0 -2.6080646270e+01 +7.7075366760e+01 +1.5068665001e+02 1.0123594373e+03 9.9776968860e+02 0.0000e+00 0.0000e+00
  5000521  1    3    3    0    0 -2.3106696299e+02 +1.8134788255e+01 -3.7725093586e+02 4.4287592003e+02 1.0000000000e+01 0.0000e+00 -1.0000e+00
 -5000521  1    3    3    0    0 +2.0498631672e+02 +5.8940578505e+01 +5.2793758588e+02 5.6948351725e+02 1.0000000000e+01 0.0000e+00 1.0000e+00
       21  1    1    2  502  501 +2.6080646270e+01 -7.7075366760e+01 +2.6000125162e+02 2.7243616337e+02 0.0000000000e+00 0.0000e+00 -1.0000e+00
<mgrwt>
<rscale>  1 0.10010820E+04</rscale>
<asrwt>0</asrwt>
<pdfrwt beam="1">  1        2 0.13042181E+00 0.10010820E+04</pdfrwt>
<pdfrwt beam="2">  1       -2 0.67239054E-01 0.10010820E+04</pdfrwt>
<totfact> 0.64448167E+01</totfact>
</mgrwt>
</event>
<event>
 6      1 +3.0741590e+01 9.97700700e+02 7.81860800e-03 9.31107000e-02
       -1 -1    0    0    0  501 -0.0000000000e+00 +0.0000000000e+00 +2.2482121744e+02 2.2482121744e+02 0.0000000000e+00 0.0000e+00 -1.0000e+00
       21 -1    0    0  501  502 +0.0000000000e+00 -0.0000000000e+00 -1.2382338254e+03 1.2382338254e+03 0.0000000000e+00 0.0000e+00 1.0000e+00
  5000001  2    1    2    0    0 +5.4318593291e+01 +1.8390657612e+01 -9.5188794896e+02 1.3789479116e+03 9.9605117822e+02 0.0000e+00 0.0000e+00
  5000521  1    3    3    0    0 +2.5832924996e+02 -1.8547626694e+02 +6.2545526127e+01 3.2426438259e+02 1.0000000000e+01 0.0000e+00 -1.0000e+00
 -5000521  1    3    3    0    0 -2.0401065667e+02 +2.0386692455e+02 -1.0144334751e+03 1.0546835290e+03 1.0000000000e+01 0.0000e+00 1.0000e+00
       -1  1    1    2    0  502 -5.4318593291e+01 -1.8390657612e+01 -6.1524659032e+01 8.4107131288e+01 0.0000000000e+00 0.0000e+00 -1.0000e+00
<mgrwt>
<rscale>  1 0.99770069E+03</rscale>
<asrwt>0</asrwt>
<pdfrwt beam="1">  1       21 0.19049751E+00 0.99770069E+03</pdfrwt>
<pdfrwt beam="2">  1       -1 0.34587879E-01 0.99770069E+03</pdfrwt>
<totfact> 0.87756656E+01</totfact>
</mgrwt>
</event>
<event>
 6      1 +3.0741590e+01 1.00736700e+03 7.81860800e-03 9.30050100e-02
        1 -1    0    0  502    0 +0.0000000000e+00 +0.0000000000e+00 +1.6446309023e+03 1.6446309023e+03 0.0000000000e+00 0.0000e+00 -1.0000e+00
       -1 -1    0    0    0  501 -0.0000000000e+00 -0.0000000000e+00 -1.6878978690e+02 1.6878978690e+02 0.0000000000e+00 0.0000e+00 1.0000e+00
  5000001  2    1    2    0    0 +1.6636206482e+01 +4.2336821630e+01 +1.3956869771e+03 1.7212585727e+03 1.0063397866e+03 0.0000e+00 0.0000e+00
  5000521  1    3    3    0    0 -3.9003560045e+02 +2.5041690901e+02 +1.0516196138e+03 1.1492781256e+03 1.0000000000e+01 0.0000e+00 -1.0000e+00
 -5000521  1    3    3    0    0 +4.0667180694e+02 -2.0808008738e+02 +3.4406736328e+02 5.7198044704e+02 1.0000000000e+01 0.0000e+00 1.0000e+00
       21  1    1    2  502  501 -1.6636206482e+01 -4.2336821630e+01 +8.0154138360e+01 9.2162116556e+01 0.0000000000e+00 0.0000e+00 -1.0000e+00
<mgrwt>
<rscale>  1 0.10073673E+04</rscale>
<asrwt>0</asrwt>
<pdfrwt beam="1">  1        1 0.25302013E+00 0.10073673E+04</pdfrwt>
<pdfrwt beam="2">  1       -1 0.25967661E-01 0.10073673E+04</pdfrwt>
<totfact> 0.68465290E+01</totfact>
</mgrwt>
</event>
<event>
 6      1 +3.0741590e+01 1.00679800e+03 7.81860800e-03 9.30112000e-02
        1 -1    0    0  502    0 +0.0000000000e+00 +0.0000000000e+00 +1.2883347212e+03 1.2883347212e+03 0.0000000000e+00 0.0000e+00 -1.0000e+00
       -1 -1    0    0    0  501 -0.0000000000e+00 -0.0000000000e+00 -3.2736251097e+02 3.2736251097e+02 0.0000000000e+00 0.0000e+00 1.0000e+00
  5000001  2    1    2    0    0 -4.7783269019e+01 +7.5483890675e+01 +1.0736784370e+03 1.4718787630e+03 1.0028263301e+03 0.0000e+00 0.0000e+00
  5000521  1    3    3    0    0 +2.1972407311e+01 -3.1532107733e+02 +1.0239456066e+03 1.0716691531e+03 1.0000000000e+01 0.0000e+00 -1.0000e+00
 -5000521  1    3    3    0    0 -6.9755676330e+01 +3.9080496800e+02 +4.9732830361e+01 4.0020960984e+02 1.0000000000e+01 0.0000e+00 1.0000e+00
       21  1    1    2  502  501 +4.7783269019e+01 -7.5483890675e+01 -1.1270622671e+02 1.4381846922e+02 0.0000000000e+00 0.0000e+00 -1.0000e+00
<mgrwt>
<rscale>  1 0.10067977E+04</rscale>
<asrwt>0</asrwt>
<pdfrwt beam="1">  1        1 0.19820534E+00 0.10067977E+04</pdfrwt>
<pdfrwt beam="2">  1       -1 0.50363464E-01 0.10067977E+04</pdfrwt>
<totfact> 0.36626089E+01</totfact>
</mgrwt>
</event>
<event>
 6      1 +3.0741590e+01 1.05732800e+03 7.81860800e-03 9.24781100e-02
        1 -1    0    0  502    0 +0.0000000000e+00 +0.0000000000e+00 +7.2251061224e+02 7.2251061224e+02 0.0000000000e+00 0.0000e+00 -1.0000e+00
       -1 -1    0    0    0  501 -0.0000000000e+00 -0.0000000000e+00 -6.1579118749e+02 6.1579118749e+02 0.0000000000e+00 0.0000e+00 1.0000e+00
  5000001  2    1    2    0    0 +1.5316381117e+02 -2.0259713831e+02 -1.3259946081e+01 1.0574107124e+03 1.0263707104e+03 0.0000e+00 0.0000e+00
  5000521  1    3    3    0    0 -2.7785276768e+02 -4.0095516246e+02 +2.1212169812e+02 5.3203648149e+02 1.0000000000e+01 0.0000e+00 -1.0000e+00
 -5000521  1    3    3    0    0 +4.3101657886e+02 +1.9835802416e+02 -2.2538164420e+02 5.2537423094e+02 1.0000000000e+01 0.0000e+00 1.0000e+00
       21  1    1    2  502  501 -1.5316381117e+02 +2.0259713831e+02 +1.1997937082e+02 2.8089108730e+02 0.0000000000e+00 0.0000e+00 1.0000e+00
<mgrwt>
<rscale>  1 0.10573276E+04</rscale>
<asrwt>0</asrwt>
<pdfrwt beam="1">  1        1 0.11115548E+00 0.10573276E+04</pdfrwt>
<pdfrwt beam="2">  1       -1 0.94737106E-01 0.10573276E+04</pdfrwt>
<totfact> 0.27914382E+01</totfact>
</mgrwt>
</event>
<event>
 6      1 +3.0741590e+01 1.00051100e+03 7.81860800e-03 9.30798500e-02
       -2 -1    0    0    0  501 -0.0000000000e+00 +0.0000000000e+00 +1.1134199254e+02 1.1134199254e+02 0.0000000000e+00 0.0000e+00 1.0000e+00
        2 -1    0    0  502    0 +0.0000000000e+00 -0.0000000000e+00 -2.8263213462e+03 2.8263213462e+03 0.0000000000e+00 0.0000e+00 -1.0000e+00
  5000001  2    1    2    0    0 -2.9354293730e+01 +6.3460066438e+01 -2.1860082116e+03 2.4040911096e+03 9.9806478119e+02 0.0000e+00 0.0000e+00
  5000521  1    3    3    0    0 +4.0026103215e+02 +1.6700046734e+01 -3.9882869661e+02 5.6537785123e+02 1.0000000000e+01 0.0000e+00 1.0000e+00
 -5000521  1    3    3    0    0 -4.2961532588e+02 +4.6760019705e+01 -1.7871795150e+03 1.8387132583e+03 1.0000000000e+01 0.0000e+00 -1.0000e+00
       21  1    1    2  502  501 +2.9354293730e+01 -6.3460066438e+01 -5.2897114203e+02 5.3357222913e+02 0.0000000000e+00 0.0000e+00 1.0000e+00
<mgrwt>
<rscale>  1 0.10005110E+04</rscale>
<asrwt>0</asrwt>
<pdfrwt beam="1">  1        2 0.43481864E+00 0.10005110E+04</pdfrwt>
<pdfrwt beam="2">  1       -2 0.17129538E-01 0.10005110E+04</pdfrwt>
<totfact> 0.63457765E+01</totfact>
</mgrwt>
</event>
<event>
 6      1 +3.0741590e+01 9.46560800e+02 7.81860800e-03 9.36918000e-02
        1 -1    0    0  502    0 +0.0000000000e+00 +0.0000000000e+00 +7.1348909030e+02 7.1348909030e+02 0.0000000000e+00 0.0000e+00 -1.0000e+00
       -1 -1    0    0    0  501 -0.0000000000e+00 -0.0000000000e+00 -4.4730034187e+02 4.4730034187e+02 0.0000000000e+00 0.0000e+00 1.0000e+00
  5000001  2    1    2    0    0 +3.2323289299e-01 +3.7694382075e+01 +5.7047605027e+01 9.4827828239e+02 9.4580986498e+02 0.0000e+00 0.0000e+00
  5000521  1    3    3    0    0 -3.8002416300e+02 -8.4750200705e+01 -2.3351799205e+02 4.5412730989e+02 1.0000000000e+01 0.0000e+00 1.0000e+00
 -5000521  1    3    3    0    0 +3.8034739589e+02 +1.2244458278e+02 +2.9056559707e+02 4.9415097249e+02 1.0000000000e+01 0.0000e+00 -1.0000e+00
       21  1    1    2  502  501 -3.2323289299e-01 -3.7694382075e+01 +2.0914114340e+02 2.1251114978e+02 0.0000000000e+00 0.0000e+00 -1.0000e+00
<mgrwt>
<rscale>  1 0.94656076E+03</rscale>
<asrwt>0</asrwt>
<pdfrwt beam="1">  1        1 0.10976755E+00 0.94656076E+03</pdfrwt>
<pdfrwt beam="2">  1       -1 0.68815438E-01 0.94656076E+03</pdfrwt>
<totfact> 0.56898495E+01</totfact>
</mgrwt>
</event>
<event>
 6      1 +3.0741590e+01 1.00351600e+03 7.81860800e-03 9.30469700e-02
       21 -1    0    0  501  502 +0.0000000000e+00 +0.0000000000e+00 +1.1916294327e+02 1.1916294327e+02 0.0000000000e+00 0.0000e+00 1.0000e+00
        2 -1    0    0  502    0 -0.0000000000e+00 -0.0000000000e+00 -3.0381693180e+03 3.0381693180e+03 0.0000000000e+00 0.0000e+00 -1.0000e+00
  5000001  2    1    2    0    0 -2.3213736034e+01 +6.5262398244e+01 -2.9204457841e+03 3.0880492903e+03 1.0011227614e+03 0.0000e+00 0.0000e+00
  5000521  1    3    3    0    0 +2.5243085183e+02 +3.8477370416e+00 -1.3151152951e+02 2.8483578152e+02 1.0000000000e+01 0.0000e+00 1.0000e+00
 -5000521  1    3    3    0    0 -2.7564458787e+02 +6.1414661203e+01 -2.7889342546e+03 2.8032135088e+03 1.0000000000e+01 0.0000e+00 -1.0000e+00
        2  1    1    2  501    0 +2.3213736034e+01 -6.5262398244e+01 +1.4394093823e+00 6.9282970957e+01 0.0000000000e+00 0.0000e+00 -1.0000e+00
<mgrwt>
<rscale>  1 0.10035162E+04</rscale>
<asrwt>0</asrwt>
<pdfrwt beam="1">  1       21 0.18332762E-01 0.10035162E+04</pdfrwt>
<pdfrwt beam="2">  1        2 0.46741064E+00 0.10035162E+04</pdfrwt>
<totfact> 0.54454627E+02</totfact>
</mgrwt>
</event>
<event>
 6      1 +3.0741590e+01 1.00472500e+03 7.81860800e-03 9.30337700e-02
        2 -1    0    0  502    0 +0.0000000000e+00 +0.0000000000e+00 +1.3582341052e+03 1.3582341052e+03 0.0000000000e+00 0.0000e+00 -1.0000e+00
       -2 -1    0    0    0  501 -0.0000000000e+00 -0.0000000000e+00 -2.1750410795e+02 2.1750410795e+02 0.0000000000e+00 0.0000e+00 1.0000e+00
  5000001  2    1    2    0    0 +2.8599456511e+01 -1.7693617132e+01 +1.1618519236e+03 1.5360251325e+03 1.0041624980e+03 0.0000e+00 0.0000e+00
  5000521  1    3    3    0    0 +3.2373716216e+01 -1.6827990953e+02 -1.4241947422e+02 2.2304594165e+02 1.0000000000e+01 0.0000e+00 1.0000e+00
 -5000521  1    3    3    0    0 -3.7742597047e+00 +1.5058629239e+02 +1.3042713978e+03 1.3129791908e+03 1.0000000000e+01 0.0000e+00 -1.0000e+00
       21  1    1    2  502  501 -2.8599456511e+01 +1.7693617132e+01 -2.1121926355e+01 3.9713080627e+01 0.0000000000e+00 0.0000e+00 -1.0000e+00
<mgrwt>
<rscale>  1 0.10047255E+04</rscale>
<asrwt>0</asrwt>
<pdfrwt beam="1">  1        2 0.20895909E+00 0.10047255E+04</pdfrwt>
<pdfrwt beam="2">  1       -2 0.33462171E-01 0.10047255E+04</pdfrwt>
<totfact> 0.12731421E+02</totfact>
</mgrwt>
</event>
<event>
 6      1 +3.0741590e+01 1.00452500e+03 7.81860800e-03 9.30359600e-02
        1 -1    0    0  502    0 +0.0000000000e+00 +0.0000000000e+00 +6.1517329896e+02 6.1517329896e+02 0.0000000000e+00 0.0000e+00 -1.0000e+00
       -1 -1    0    0    0  501 -0.0000000000e+00 -0.0000000000e+00 -5.0775785645e+02 5.0775785645e+02 0.0000000000e+00 0.0000e+00 1.0000e+00
  5000001  2    1    2    0    0 +8.7104658615e+01 -6.4471273281e+01 +1.2792767516e+02 1.0126382802e+03 9.9866262064e+02 0.0000e+00 0.0000e+00
  5000521  1    3    3    0    0 +1.7898199974e+02 +1.6250992860e+02 +5.0669363796e+02 5.6150020113e+02 1.0000000000e+01 0.0000e+00 -1.0000e+00
 -5000521  1    3    3    0    0 -9.1877341128e+01 -2.2698120188e+02 -3.7876596280e+02 4.5113807908e+02 1.0000000000e+01 0.0000e+00 1.0000e+00
       21  1    1    2  502  501 -8.7104658615e+01 +6.4471273281e+01 -2.0512232641e+01 1.1029287520e+02 0.0000000000e+00 0.0000e+00 1.0000e+00
<mgrwt>
<rscale>  1 0.10045252E+04</rscale>
<asrwt>0</asrwt>
<pdfrwt beam="1">  1        1 0.94642046E-01 0.10045252E+04</pdfrwt>
<pdfrwt beam="2">  1       -1 0.78116593E-01 0.10045252E+04</pdfrwt>
<totfact> 0.54336896E+01</totfact>
</mgrwt>
</event>
<event>
 6      1 +3.0741590e+01 9.88153200e+02 7.81860800e-03 9.32163400e-02
       21 -1    0    0  501  502 +0.0000000000e+00 +0.0000000000e+00 +1.9701025969e+02 1.9701025969e+02 0.0000000000e+00 0.0000e+00 1.0000e+00
        2 -1    0    0  502    0 -0.0000000000e+00 -0.0000000000e+00 -2.1577882609e+03 2.1577882609e+03 0.0000000000e+00 0.0000e+00 -1.0000e+00
  5000001  2    1    2    0    0 +2.4924140272e+01 +1.3364455241e+00 -2.0427012086e+03 2.2691573461e+03 9.8783795980e+02 0.0000e+00 0.0000e+00
  5000521  1    3    3    0    0 +2.6084438934e+02 +4.8738356322e+01 -2.0084059660e+03 2.0258849293e+03 1.0000000000e+01 0.0000e+00 -1.0000e+00
 -5000521  1    3    3    0    0 -2.3592024907e+02 -4.7401910798e+01 -3.4295242605e+01 2.4327241671e+02 1.0000000000e+01 0.0000e+00 1.0000e+00
        2  1    1    2  501    0 -2.4924140272e+01 -1.3364455241e+00 +8.1923207409e+01 8.5641174484e+01 0.0000000000e+00 0.0000e+00 -1.0000e+00
<mgrwt>
<rscale>  1 0.98815324E+03</rscale>
<asrwt>0</asrwt>
<pdfrwt beam="1">  1       21 0.30309271E-01 0.98815324E+03</pdfrwt>
<pdfrwt beam="2">  1        2 0.33196742E+00 0.98815324E+03</pdfrwt>
<totfact> 0.66066721E+02</totfact>
</mgrwt>
</event>
<event>
 6      1 +3.0741590e+01 9.96971400e+02 7.81860800e-03 9.31187300e-02
        2 -1    0    0  502    0 +0.0000000000e+00 +0.0000000000e+00 +1.8271801319e+03 1.8271801319e+03 0.0000000000e+00 0.0000e+00 1.0000e+00
       -2 -1    0    0    0  501 -0.0000000000e+00 -0.0000000000e+00 -1.9526127420e+02 1.9526127420e+02 0.0000000000e+00 0.0000e+00 -1.0000e+00
  5000001  2    1    2    0    0 +3.5559658259e+01 -4.1143388523e+01 +1.6775567542e+03 1.9514478478e+03 9.9548720300e+02 0.0000e+00 0.0000e+00
  5000521  1    3    3    0    0 -4.5798970682e+02 -2.9525160091e+01 +1.0977699731e+03 1.1898845408e+03 1.0000000000e+01 0.0000e+00 1.0000e+00
 -5000521  1    3    3    0    0 +4.9354936508e+02 -1.1618228432e+01 +5.7978678118e+02 7.6156330704e+02 1.0000000000e+01 0.0000e+00 -1.0000e+00
       21  1    1    2  502  501 -3.5559658259e+01 +4.1143388523e+01 -4.5637896546e+01 7.0993558270e+01 0.0000000000e+00 0.0000e+00 1.0000e+00
<mgrwt>
<rscale>  1 0.99697143E+03</rscale>
<asrwt>0</asrwt>
<pdfrwt beam="1">  1        2 0.28110462E+00 0.99697143E+03</pdfrwt>
<pdfrwt beam="2">  1       -2 0.30040197E-01 0.99697143E+03</pdfrwt>
<totfact> 0.85356149E+01</totfact>
</mgrwt>
</event>
<event>
 6      1 +3.0741590e+01 9.95149400e+02 7.81860800e-03 9.31388100e-02
        1 -1    0    0  502    0 -0.0000000000e+00 +0.0000000000e+00 +2.0984648888e+03 2.0984648888e+03 0.0000000000e+00 0.0000e+00 -1.0000e+00
       21 -1    0    0  501  502 +0.0000000000e+00 -0.0000000000e+00 -1.3246169888e+02 1.3246169888e+02 0.0000000000e+00 0.0000e+00 1.0000e+00
  5000001  2    1    2    0    0 +2.2067748858e+01 +1.1640629104e+01 +1.9686070394e+03 2.2058413366e+03 9.9483658814e+02 0.0000e+00 0.0000e+00
  5000521  1    3    3    0    0 -1.4755584009e+02 +3.0373561177e+02 +1.7458968758e+02 3.8027569843e+02 1.0000000000e+01 0.0000e+00 1.0000e+00
 -5000521  1    3    3    0    0 +1.6962358894e+02 -2.9209498267e+02 +1.7940173518e+03 1.8255656382e+03 1.0000000000e+01 0.0000e+00 -1.0000e+00
        1  1    1    2  501    0 -2.2067748858e+01 -1.1640629104e+01 -2.6038495178e+00 2.5085251003e+01 0.0000000000e+00 0.0000e+00 -1.0000e+00
<mgrwt>
<rscale>  1 0.99514940E+03</rscale>
<asrwt>0</asrwt>
<pdfrwt beam="1">  1       21 0.20378724E-01 0.99514940E+03</pdfrwt>
<pdfrwt beam="2">  1        1 0.32284073E+00 0.99514940E+03</pdfrwt>
<totfact> 0.59733505E+02</totfact>
</mgrwt>
</event>
<event>
 6      1 +3.0741590e+01 9.92556800e+02 7.81860800e-03 9.31674600e-02
       21 -1    0    0  501  502 +0.0000000000e+00 +0.0000000000e+00 +3.3766923880e+02 3.3766923880e+02 0.0000000000e+00 0.0000e+00 -1.0000e+00
       -3 -1    0    0    0  501 -0.0000000000e+00 -0.0000000000e+00 -9.6842866424e+02 9.6842866424e+02 0.0000000000e+00 0.0000e+00 1.0000e+00
  5000001  2    1    2    0    0 +4.1618204891e+01 +1.2410849933e+01 -7.0682217200e+02 1.2185099724e+03 9.9160620506e+02 0.0000e+00 0.0000e+00
  5000521  1    3    3    0    0 +2.8791106580e+02 +9.2111690922e+01 +1.3975669909e+02 3.3318055219e+02 1.0000000000e+01 0.0000e+00 -1.0000e+00
 -5000521  1    3    3    0    0 -2.4629286091e+02 -7.9700840989e+01 -8.4657887109e+02 8.8532942025e+02 1.0000000000e+01 0.0000e+00 1.0000e+00
       -3  1    1    2    0  502 -4.1618204891e+01 -1.2410849933e+01 +7.6062746552e+01 8.7587930604e+01 0.0000000000e+00 0.0000e+00 1.0000e+00
<mgrwt>
<rscale>  1 0.99255678E+03</rscale>
<asrwt>0</asrwt>
<pdfrwt beam="1">  1       21 0.51949115E-01 0.99255678E+03</pdfrwt>
<pdfrwt beam="2">  1       -3 0.14898902E+00 0.99255678E+03</pdfrwt>
<totfact> 0.52337189E+01</totfact>
</mgrwt>
</event>
<event>
 6      1 +3.0741590e+01 9.52529300e+02 7.81860800e-03 9.36219900e-02
        1 -1    0    0  502    0 +0.0000000000e+00 +0.0000000000e+00 +4.4255952327e+02 4.4255952327e+02 0.0000000000e+00 0.0000e+00 -1.0000e+00
       -1 -1    0    0    0  501 -0.0000000000e+00 -0.0000000000e+00 -9.5129075663e+02 9.5129075663e+02 0.0000000000e+00 0.0000e+00 1.0000e+00
  5000001  2    1    2    0    0 -3.7361634683e+01 -3.2426668202e+01 -7.3003027856e+01 9.5532268713e+02 9.5124371951e+02 0.0000e+00 0.0000e+00
  5000521  1    3    3    0    0 -4.3004457997e+02 +4.1696925655e+01 +1.9491823167e+02 4.7409924215e+02 1.0000000000e+01 0.0000e+00 -1.0000e+00
 -5000521  1    3    3    0    0 +3.9268294529e+02 -7.4123593857e+01 -2.6792125953e+02 4.8122344497e+02 1.0000000000e+01 0.0000e+00 1.0000e+00
       21  1    1    2  502  501 +3.7361634683e+01 +3.2426668202e+01 -4.3572820550e+02 4.3852759278e+02 0.0000000000e+00 0.0000e+00 1.0000e+00
<mgrwt>
<rscale>  1 0.95252926E+03</rscale>
<asrwt>0</asrwt>
<pdfrwt beam="1">  1        1 0.68086081E-01 0.95252926E+03</pdfrwt>
<pdfrwt beam="2">  1       -1 0.14635242E+00 0.95252926E+03</pdfrwt>
<totfact> 0.19655134E+01</totfact>
</mgrwt>
</event>
<event>
 6      1 +3.0741590e+01 9.58039500e+02 7.81860800e-03 9.35580300e-02
        2 -1    0    0  502    0 +0.0000000000e+00 +0.0000000000e+00 +3.3361681228e+03 3.3361681228e+03 0.0000000000e+00 0.0000e+00 -1.0000e+00
       -2 -1    0    0    0  501 -0.0000000000e+00 -0.0000000000e+00 -9.6945824732e+01 9.6945824732e+01 0.0000000000e+00 0.0000e+00 1.0000e+00
  5000001  2    1    2    0    0 +7.3197713219e+01 +3.1396582283e+01 +2.3141842141e+03 2.5046533359e+03 9.5472305176e+02 0.0000e+00 0.0000e+00
  5000521  1    3    3    0    0 +4.9160401543e+02 -8.1484481871e+01 +1.5232844067e+03 1.6027506395e+03 1.0000000000e+01 0.0000e+00 -1.0000e+00
 -5000521  1    3    3    0    0 -4.1840630221e+02 +1.1288106415e+02 +7.9089980748e+02 9.0190269644e+02 1.0000000000e+01 0.0000e+00 1.0000e+00
       21  1    1    2  502  501 -7.3197713219e+01 -3.1396582283e+01 +9.2503808394e+02 9.2846061162e+02 0.0000000000e+00 0.0000e+00 -1.0000e+00
<mgrwt>
<rscale>  1 0.95803954E+03</rscale>
<asrwt>0</asrwt>
<pdfrwt beam="1">  1        2 0.51325654E+00 0.95803954E+03</pdfrwt>
<pdfrwt beam="2">  1       -2 0.14914745E-01 0.95803954E+03</pdfrwt>
<totfact> 0.38698231E+01</totfact>
</mgrwt>
</event>
<event>
 6      1 +3.0741590e+01 1.01150500e+03 7.81860800e-03 9.29601600e-02
       -2 -1    0    0    0  501 -0.0000000000e+00 +0.0000000000e+00 +5.3999416181e+02 5.3999416181e+02 0.0000000000e+00 0.0000e+00 1.0000e+00
        2 -1    0    0  502    0 +0.0000000000e+00 -0.0000000000e+00 -7.6579535983e+02 7.6579535983e+02 0.0000000000e+00 0.0000e+00 -1.0000e+00
  5000001  2    1    2    0    0 +1.9531166305e+01 -3.1267056376e+01 -4.2940348540e+02 1.0988765286e+03 1.0108329123e+03 0.0000e+00 0.0000e+00
  5000521  1    3    3    0    0 -2.1427300485e+02 +2.0763146698e+02 -6.3823751457e+02 7.0460689160e+02 1.0000000000e+01 0.0000e+00 -1.0000e+00
 -5000521  1    3    3    0    0 +2.3380417115e+02 -2.3889852336e+02 +2.0883402917e+02 3.9426963699e+02 1.0000000000e+01 0.0000e+00 1.0000e+00
       21  1    1    2  502  501 -1.9531166305e+01 +3.1267056376e+01 +2.0360228738e+02 2.0691299306e+02 0.0000000000e+00 0.0000e+00 1.0000e+00
<mgrwt>
<rscale>  1 0.10115050E+04</rscale>
<asrwt>0</asrwt>
<pdfrwt beam="1">  1        2 0.11781467E+00 0.10115050E+04</pdfrwt>
<pdfrwt beam="2">  1       -2 0.83076025E-01 0.10115050E+04</pdfrwt>
<totfact> 0.46119339E+01</totfact>
</mgrwt>
</event>
<event>
 6      1 +3.0741590e+01 9.96674300e+02 7.81860800e-03 9.31220000e-02
        4 -1    0    0  502    0 +0.0000000000e+00 +0.0000000000e+00 +7.8438839732e+02 7.8438839732e+02 0.0000000000e+00 0.0000e+00 -1.0000e+00
       -4 -1    0    0    0  501 -0.0000000000e+00 -0.0000000000e+00 -3.6301792056e+02 3.6301792056e+02 0.0000000000e+00 0.0000e+00 1.0000e+00
  5000001  2    1    2    0    0 +2.6472003357e+01 -3.5439224509e+01 +4.5120583196e+02 1.0940503996e+03 9.9569215547e+02 0.0000e+00 0.0000e+00
  5000521  1    3    3    0    0 -1.3286517564e+02 -1.1399360239e+02 -2.8611003682e+02 3.3556914258e+02 1.0000000000e+01 0.0000e+00 1.0000e+00
 -5000521  1    3    3    0    0 +1.5933717899e+02 +7.8554377881e+01 +7.3731586878e+02 7.5848125702e+02 1.0000000000e+01 0.0000e+00 -1.0000e+00
       21  1    1    2  502  501 -2.6472003357e+01 +3.5439224509e+01 -2.9835355200e+01 5.3355918280e+01 0.0000000000e+00 0.0000e+00 1.0000e+00
<mgrwt>
<rscale>  1 0.99667426E+03</rscale>
<asrwt>0</asrwt>
<pdfrwt beam="1">  1        4 0.12067514E+00 0.99667426E+03</pdfrwt>
<pdfrwt beam="2">  1       -4 0.55848911E-01 0.99667426E+03</pdfrwt>
<totfact> 0.31562119E+00</totfact>
</mgrwt>
</event>
<event>
 6      1 +3.0741590e+01 9.99000900e+02 7.81860800e-03 9.30964100e-02
       -2 -1    0    0    0  501 -0.0000000000e+00 +0.0000000000e+00 +8.8753356104e+02 8.8753356104e+02 0.0000000000e+00 0.0000e+00 -1.0000e+00
        2 -1    0    0  502    0 +0.0000000000e+00 -0.0000000000e+00 -3.0374814645e+02 3.0374814645e+02 0.0000000000e+00 0.0000e+00 1.0000e+00
  5000001  2    1    2    0    0 -4.3381304560e-01 +2.1914521142e+01 +5.2501768479e+02 1.1285594587e+03 9.9876045575e+02 0.0000e+00 0.0000e+00
  5000521  1    3    3    0    0 -3.8964213405e+02 -2.6947616497e+00 +6.1508082393e+02 7.2818450569e+02 1.0000000000e+01 0.0000e+00 -1.0000e+00
 -5000521  1    3    3    0    0 +3.8920832100e+02 +2.4609282792e+01 -9.0063139136e+01 4.0037495298e+02 1.0000000000e+01 0.0000e+00 1.0000e+00
       21  1    1    2  502  501 +4.3381304560e-01 -2.1914521142e+01 +5.8767729796e+01 6.2722248812e+01 0.0000000000e+00 0.0000e+00 1.0000e+00
<mgrwt>
<rscale>  1 0.99900094E+03</rscale>
<asrwt>0</asrwt>
<pdfrwt beam="1">  1        2 0.46730485E-01 0.99900094E+03</pdfrwt>
<pdfrwt beam="2">  1       -2 0.13654362E+00 0.99900094E+03</pdfrwt>
<totfact> 0.41381357E+01</totfact>
</mgrwt>
</event>
<event>
 6      1 +3.0741590e+01 1.00122300e+03 7.81860800e-03 9.30720400e-02
        1 -1    0    0  502    0 +0.0000000000e+00 +0.0000000000e+00 +6.1968012478e+02 6.1968012478e+02 0.0000000000e+00 0.0000e+00 -1.0000e+00
       -1 -1    0    0    0  501 -0.0000000000e+00 -0.0000000000e+00 -4.2777783354e+02 4.2777783354e+02 0.0000000000e+00 0.0000e+00 1.0000e+00
  5000001  2    1    2    0    0 -1.7083967719e+01 -1.7471598744e+01 +1.7188616326e+02 1.0158705543e+03 1.0009250777e+03 0.0000e+00 0.0000e+00
  5000521  1    3    3    0    0 -1.1882465129e+02 -9.3429103584e-01 +5.8138049946e+02 5.9348416643e+02 1.0000000000e+01 0.0000e+00 -1.0000e+00
 -5000521  1    3    3    0    0 +1.0174068357e+02 -1.6537307708e+01 -4.0949433620e+02 4.2238638783e+02 1.0000000000e+01 0.0000e+00 1.0000e+00
       21  1    1    2  502  501 +1.7083967719e+01 +1.7471598744e+01 +2.0016127987e+01 3.1587404061e+01 0.0000000000e+00 0.0000e+00 -1.0000e+00
<mgrwt>
<rscale>  1 0.10012233E+04</rscale>
<asrwt>0</asrwt>
<pdfrwt beam="1">  1        1 0.95335404E-01 0.10012233E+04</pdfrwt>
<pdfrwt beam="2">  1       -1 0.65811974E-01 0.10012233E+04</pdfrwt>
<totfact> 0.76685438E+01</totfact>
</mgrwt>
</event>
<event>
 6      1 +3.0741590e+01 1.00437600e+03 7.81860800e-03 9.30375800e-02
       -2 -1    0    0    0  501 -0.0000000000e+00 +0.0000000000e+00 +2.9508738645e+02 2.9508738645e+02 0.0000000000e+00 0.0000e+00 -1.0000e+00
        2 -1    0    0  502    0 +0.0000000000e+00 -0.0000000000e+00 -2.6045834469e+03 2.6045834469e+03 0.0000000000e+00 0.0000e+00 1.0000e+00
  5000001  2    1    2    0    0 +1.0202019332e+01 -5.9690217769e+01 -5.6159565405e+02 1.1507217678e+03 1.0025487045e+03 0.0000e+00 0.0000e+00
  5000521  1    3    3    0    0 -2.0260631837e+02 +4.0082334628e+02 -4.4028870241e+02 6.2901734208e+02 1.0000000000e+01 0.0000e+00 1.0000e+00
 -5000521  1    3    3    0    0 +2.1280833771e+02 -4.6051356405e+02 -1.2130695164e+02 5.2170442569e+02 1.0000000000e+01 0.0000e+00 -1.0000e+00
       21  1    1    2  502  501 -1.0202019332e+01 +5.9690217769e+01 -1.7479004064e+03 1.7489490656e+03 0.0000000000e+00 0.0000e+00 1.0000e+00
<mgrwt>
<rscale>  1 0.10043759E+04</rscale>
<asrwt>0</asrwt>
<pdfrwt beam="1">  1        2 0.40070514E+00 0.10043759E+04</pdfrwt>
<pdfrwt beam="2">  1       -2 0.45398060E-01 0.10043759E+04</pdfrwt>
<totfact> 0.14106965E+01</totfact>
</mgrwt>
</event>
<event>
 5      1 +3.0741590e+01 6.78889300e+02 7.81860800e-03 9.75403100e-02
        1 -1    0    0  502    0 +0.0000000000e+00 +0.0000000000e+00 +6.9672742923e+02 6.9672742923e+02 0.0000000000e+00 0.0000e+00 1.0000e+00
       -1 -1    0    0    0  501 -0.0000000000e+00 -0.0000000000e+00 -2.5934669589e+02 2.5934669589e+02 0.0000000000e+00 0.0000e+00 -1.0000e+00
  5000521  1    1    2    0    0 -8.1527825169e+01 +2.8906720362e+02 +2.8363971447e+02 4.1322889796e+02 1.0000000000e+01 0.0000e+00 1.0000e+00
 -5000521  1    1    2    0    0 +6.7407637692e+01 -2.6578983885e+02 -9.6700790861e+01 2.9092794814e+02 1.0000000000e+01 0.0000e+00 -1.0000e+00
       21  1    1    2  502  501 +1.4120187477e+01 -2.3277364768e+01 +2.5044180974e+02 2.5191727902e+02 0.0000000000e+00 0.0000e+00 -1.0000e+00
<mgrwt>
<rscale>  1 0.67888932E+03</rscale>
<asrwt>0</asrwt>
<pdfrwt beam="1">  1        1 0.10718883E+00 0.67888932E+03</pdfrwt>
<pdfrwt beam="2">  1       -1 0.39899492E-01 0.67888932E+03</pdfrwt>
<totfact> 0.17108549E+02</totfact>
</mgrwt>
</event>
<event>
 6      1 +3.0741590e+01 1.00387500e+03 7.81860800e-03 9.30430500e-02
        2 -1    0    0  502    0 +0.0000000000e+00 +0.0000000000e+00 +3.8688991433e+03 3.8688991433e+03 0.0000000000e+00 0.0000e+00 1.0000e+00
       -2 -1    0    0    0  501 -0.0000000000e+00 -0.0000000000e+00 -7.7771931904e+01 7.7771931904e+01 0.0000000000e+00 0.0000e+00 -1.0000e+00
  5000001  2    1    2    0    0 +2.6039865626e+01 -7.3524881933e+00 +3.7887728905e+03 3.9195108744e+03 1.0035105107e+03 0.0000e+00 0.0000e+00
  5000521  1    3    3    0    0 +1.6263175725e+02 +2.0712486617e+02 +3.5818310380e+03 3.5915126873e+03 1.0000000000e+01 0.0000e+00 1.0000e+00
 -5000521  1    3    3    0    0 -1.3659189162e+02 -2.1447735436e+02 +2.0694185250e+02 3.2799818705e+02 1.0000000000e+01 0.0000e+00 -1.0000e+00
       21  1    1    2  502  501 -2.6039865626e+01 +7.3524881933e+00 +2.3543209726e+00 2.7160200877e+01 0.0000000000e+00 0.0000e+00 -1.0000e+00
<mgrwt>
<rscale>  1 0.10038752E+04</rscale>
<asrwt>0</asrwt>
<pdfrwt beam="1">  1        2 0.59521510E+00 0.10038752E+04</pdfrwt>
<pdfrwt beam="2">  1       -2 0.11964916E-01 0.10038752E+04</pdfrwt>
<totfact> 0.23391571E+01</totfact>
</mgrwt>
</event>
<event>
 6      1 +3.0741590e+01 1.00234000e+03 7.81860800e-03 9.30598200e-02
        2 -1    0    0  502    0 -0.0000000000e+00 +0.0000000000e+00 +1.4744120564e+03 1.4744120564e+03 0.0000000000e+00 0.0000e+00 1.0000e+00
       21 -1    0    0  501  502 +0.0000000000e+00 -0.0000000000e+00 -1.2332678034e+03 1.2332678034e+03 0.0000000000e+00 0.0000e+00 1.0000e+00
  5000001  2    1    2    0    0 -4.5371920792e+01 +2.7339603453e+01 +1.3033222445e+03 1.6441817871e+03 1.0009389646e+03 0.0000e+00 0.0000e+00
  5000521  1    3    3    0    0 +1.8354156639e+02 -4.3461130354e+02 +7.6424368488e+02 8.9818867819e+02 1.0000000000e+01 0.0000e+00 -1.0000e+00
 -5000521  1    3    3    0    0 -2.2891348719e+02 +4.6195090699e+02 +5.3907855963e+02 7.4599310891e+02 1.0000000000e+01 0.0000e+00 1.0000e+00
        2  1    1    2  501    0 +4.5371920792e+01 -2.7339603453e+01 -1.0621779915e+03 1.0634980727e+03 0.0000000000e+00 0.0000e+00 1.0000e+00
<mgrwt>
<rscale>  1 0.10023397E+04</rscale>
<asrwt>0</asrwt>
<pdfrwt beam="1">  1       21 0.18973351E+00 0.10023397E+04</pdfrwt>
<pdfrwt beam="2">  1        2 0.22683262E+00 0.10023397E+04</pdfrwt>
<totfact> 0.19517320E+01</totfact>
</mgrwt>
</event>
<event>
 6      1 +3.0741590e+01 9.98650300e+02 7.81860800e-03 9.31002600e-02
       -2 -1    0    0    0  501 -0.0000000000e+00 +0.0000000000e+00 +1.2063587122e+02 1.2063587122e+02 0.0000000000e+00 0.0000e+00 -1.0000e+00
        2 -1    0    0  502    0 +0.0000000000e+00 -0.0000000000e+00 -2.9165100830e+03 2.9165100830e+03 0.0000000000e+00 0.0000e+00 1.0000e+00
  5000001  2    1    2    0    0 -1.9695032733e+01 +2.5928421559e+01 -1.9518317845e+03 2.1924757248e+03 9.9811938748e+02 0.0000e+00 0.0000e+00
  5000521  1    3    3    0    0 +3.6628913033e+02 -1.3871748584e+02 -3.1514049686e+02 5.0281587150e+02 1.0000000000e+01 0.0000e+00 -1.0000e+00
 -5000521  1    3    3    0    0 -3.8598416306e+02 +1.6464590740e+02 -1.6366912876e+03 1.6896598533e+03 1.0000000000e+01 0.0000e+00 1.0000e+00
       21  1    1    2  502  501 +1.9695032733e+01 -2.5928421559e+01 -8.4404242732e+02 8.4467022943e+02 0.0000000000e+00 0.0000e+00 1.0000e+00
<mgrwt>
<rscale>  1 0.99865033E+03</rscale>
<asrwt>0</asrwt>
<pdfrwt beam="1">  1        2 0.44869381E+00 0.99865033E+03</pdfrwt>
<pdfrwt beam="2">  1       -2 0.18559367E-01 0.99865033E+03</pdfrwt>
<totfact> 0.48734709E+01</totfact>
</mgrwt>
</event>
<event>
 6      1 +3.0741590e+01 1.00100700e+03 7.81860800e-03 9.30744200e-02
       -1 -1    0    0    0  501 -0.0000000000e+00 +0.0000000000e+00 +1.5232030481e+03 1.5232030481e+03 0.0000000000e+00 0.0000e+00 -1.0000e+00
        1 -1    0    0  502    0 +0.0000000000e+00 -0.0000000000e+00 -1.8546915993e+02 1.8546915993e+02 0.0000000000e+00 0.0000e+00 1.0000e+00
  5000001  2    1    2    0    0 +4.6982865586e+01 +2.8874777662e+01 +1.3044349795e+03 1.6442520267e+03 9.9948635263e+02 0.0000e+00 0.0000e+00
  5000521  1    3    3    0    0 -3.5060023595e+02 +1.3459763692e+02 +1.2634983276e+02 3.9636010085e+02 1.0000000000e+01 0.0000e+00 -1.0000e+00
 -5000521  1    3    3    0    0 +3.9758310153e+02 -1.0572285926e+02 +1.1780851468e+03 1.2478919259e+03 1.0000000000e+01 0.0000e+00 1.0000e+00
       21  1    1    2  502  501 -4.6982865586e+01 -2.8874777662e+01 +3.3298908638e+01 6.4420181311e+01 0.0000000000e+00 0.0000e+00 -1.0000e+00
<mgrwt>
<rscale>  1 0.10010065E+04</rscale>
<asrwt>0</asrwt>
<pdfrwt beam="1">  1        1 0.28533718E-01 0.10010065E+04</pdfrwt>
<pdfrwt beam="2">  1       -1 0.23433892E+00 0.10010065E+04</pdfrwt>
<totfact> 0.14608435E+01</totfact>
</mgrwt>
</event>
<event>
 6      1 +3.0741590e+01 9.95790600e+02 7.81860800e-03 9.31317400e-02
        2 -1    0    0  502    0 -0.0000000000e+00 +0.0000000000e+00 +1.1907728300e+03 1.1907728300e+03 0.0000000000e+00 0.0000e+00 1.0000e+00
       21 -1    0    0  501  502 +0.0000000000e+00 -0.0000000000e+00 -3.5094090282e+02 3.5094090282e+02 0.0000000000e+00 0.0000e+00 -1.0000e+00
  5000001  2    1    2    0    0 +1.8336155869e+01 +5.9367272241e+01 +9.7457184070e+02 1.3933374143e+03 9.9385018476e+02 0.0000e+00 0.0000e+00
  5000521  1    3    3    0    0 -4.3809651716e+02 -1.4573283618e+02 +2.8997984116e+02 5.4530260055e+02 1.0000000000e+01 0.0000e+00 -1.0000e+00
 -5000521  1    3    3    0    0 +4.5643267303e+02 +2.0510010842e+02 +6.8459199954e+02 8.4803481374e+02 1.0000000000e+01 0.0000e+00 1.0000e+00
        2  1    1    2  501    0 -1.8336155869e+01 -5.9367272241e+01 -1.3473991348e+02 1.4837631856e+02 0.0000000000e+00 0.0000e+00 1.0000e+00
<mgrwt>
<rscale>  1 0.99579058E+03</rscale>
<asrwt>0</asrwt>
<pdfrwt beam="1">  1       21 0.53990909E-01 0.99579058E+03</pdfrwt>
<pdfrwt beam="2">  1        2 0.18319582E+00 0.99579058E+03</pdfrwt>
<totfact> 0.68488998E+02</totfact>
</mgrwt>
</event>
<event>
 6      1 +3.0741590e+01 1.00136300e+03 7.81860800e-03 9.30705100e-02
        2 -1    0    0  502    0 +0.0000000000e+00 +0.0000000000e+00 +6.5461751400e+02 6.5461751400e+02 0.0000000000e+00 0.0000e+00 1.0000e+00
       -2 -1    0    0    0  501 -0.0000000000e+00 -0.0000000000e+00 -4.8130451560e+02 4.8130451560e+02 0.0000000000e+00 0.0000e+00 -1.0000e+00
  5000001  2    1    2    0    0 +2.1616572752e+01 +7.3218868025e+00 +4.1579267473e+01 1.0022258737e+03 1.0011028819e+03 0.0000e+00 0.0000e+00
  5000521  1    3    3    0    0 +2.6656737648e+02 -2.0374786242e+02 +3.9815817562e+02 5.2076990164e+02 1.0000000000e+01 0.0000e+00 1.0000e+00
 -5000521  1    3    3    0    0 -2.4495080372e+02 +2.1106974923e+02 -3.5657890814e+02 4.8145597204e+02 1.0000000000e+01 0.0000e+00 -1.0000e+00
       21  1    1    2  502  501 -2.1616572752e+01 -7.3218868025e+00 +1.3173373093e+02 1.3369615592e+02 0.0000000000e+00 0.0000e+00 1.0000e+00
<mgrwt>
<rscale>  1 0.10013630E+04</rscale>
<asrwt>0</asrwt>
<pdfrwt beam="1">  1        2 0.10071039E+00 0.10013630E+04</pdfrwt>
<pdfrwt beam="2">  1       -2 0.74046848E-01 0.10013630E+04</pdfrwt>
<totfact> 0.73053628E+01</totfact>
</mgrwt>
</event>
<event>
 6      1 +3.0741590e+01 1.00777900e+03 7.81860800e-03 9.30005400e-02
       -1 -1    0    0    0  501 -0.0000000000e+00 +0.0000000000e+00 +1.2713936575e+02 1.2713936575e+02 0.0000000000e+00 0.0000e+00 -1.0000e+00
        1 -1    0    0  502    0 +0.0000000000e+00 -0.0000000000e+00 -2.2427752610e+03 2.2427752610e+03 0.0000000000e+00 0.0000e+00 1.0000e+00
  5000001  2    1    2    0    0 +2.5922441923e+01 +1.8744781962e+01 -1.8888267629e+03 2.1408606542e+03 1.0072707980e+03 0.0000e+00 0.0000e+00
  5000521  1    3    3    0    0 +6.3580483477e+01 +2.9056562854e+02 -1.8375757851e+03 1.8615197094e+03 1.0000000000e+01 0.0000e+00 1.0000e+00
 -5000521  1    3    3    0    0 -3.7658041554e+01 -2.7182084658e+02 -5.1250977841e+01 2.7934094483e+02 1.0000000000e+01 0.0000e+00 -1.0000e+00
       21  1    1    2  502  501 -2.5922441923e+01 -1.8744781962e+01 -2.2680913235e+02 2.2905397260e+02 0.0000000000e+00 0.0000e+00 1.0000e+00
<mgrwt>
<rscale>  1 0.10077786E+04</rscale>
<asrwt>0</asrwt>
<pdfrwt beam="1">  1        1 0.34504233E+00 0.10077786E+04</pdfrwt>
<pdfrwt beam="2">  1       -1 0.19559904E-01 0.10077786E+04</pdfrwt>
<totfact> 0.43681126E+01</totfact>
</mgrwt>
</event>
<event>
 6      1 +3.0741590e+01 9.96171300e+02 7.81860800e-03 9.31275400e-02
       -2 -1    0    0    0  501 -0.0000000000e+00 +0.0000000000e+00 +4.5046166148e+02 4.5046166148e+02 0.0000000000e+00 0.0000e+00 1.0000e+00
        2 -1    0    0  502    0 +0.0000000000e+00 -0.0000000000e+00 -5.9196839786e+02 5.9196839786e+02 0.0000000000e+00 0.0000e+00 -1.0000e+00
  5000001  2    1    2    0    0 -2.6498575577e+01 -4.4037654476e+00 -1.1187290889e+02 1.0024334171e+03 9.9580903809e+02 0.0000e+00 0.0000e+00
  5000521  1    3    3    0    0 -6.7409497401e+01 -3.9900711914e+02 +2.4125151280e+02 4.7122501408e+02 1.0000000000e+01 0.0000e+00 1.0000e+00
 -5000521  1    3    3    0    0 +4.0910921823e+01 +3.9460335369e+02 -3.5312442168e+02 5.3120840304e+02 1.0000000000e+01 0.0000e+00 -1.0000e+00
       21  1    1    2  502  501 +2.6498575577e+01 +4.4037654476e+00 -2.9633827484e+01 3.9996642223e+01 0.0000000000e+00 0.0000e+00 -1.0000e+00
<mgrwt>
<rscale>  1 0.99617127E+03</rscale>
<asrwt>0</asrwt>
<pdfrwt beam="1">  1        2 0.91072062E-01 0.99617127E+03</pdfrwt>
<pdfrwt beam="2">  1       -2 0.69301794E-01 0.99617127E+03</pdfrwt>
<totfact> 0.95686730E+01</totfact>
</mgrwt>
</event>
<event>
 6      1 +3.0741590e+01 1.00479000e+03 7.81860800e-03 9.30330700e-02
       -1 -1    0    0    0  501 -0.0000000000e+00 +0.0000000000e+00 +4.4300194956e+02 4.4300194956e+02 0.0000000000e+00 0.0000e+00 1.0000e+00
        1 -1    0    0  502    0 +0.0000000000e+00 -0.0000000000e+00 -6.5489133618e+02 6.5489133618e+02 0.0000000000e+00 0.0000e+00 -1.0000e+00
  5000001  2    1    2    0    0 -4.3789458248e+01 +2.1147042295e+01 -2.5079591000e+02 1.0356162305e+03 1.0036123128e+03 0.0000e+00 0.0000e+00
  5000521  1    3    3    0    0 -1.9598801585e+02 +3.2188051376e+02 -4.9287342594e+02 6.2051799449e+02 1.0000000000e+01 0.0000e+00 -1.0000e+00
 -5000521  1    3    3    0    0 +1.5219855760e+02 -3.0073347147e+02 +2.4207751594e+02 4.1509823599e+02 1.0000000000e+01 0.0000e+00 1.0000e+00
       21  1    1    2  502  501 +4.3789458248e+01 -2.1147042295e+01 +3.8906523379e+01 6.2277055269e+01 0.0000000000e+00 0.0000e+00 -1.0000e+00
<mgrwt>
<rscale>  1 0.10047897E+04</rscale>
<asrwt>0</asrwt>
<pdfrwt beam="1">  1        1 0.10075251E+00 0.10047897E+04</pdfrwt>
<pdfrwt beam="2">  1       -1 0.68154146E-01 0.10047897E+04</pdfrwt>
<totfact> 0.65808939E+01</totfact>
</mgrwt>
</event>
<event>
 6      1 +3.0741590e+01 1.00204800e+03 7.81860800e-03 9.30630100e-02
        2 -1    0    0  502    0 +0.0000000000e+00 +0.0000000000e+00 +2.5079583441e+02 2.5079583441e+02 0.0000000000e+00 0.0000e+00 1.0000e+00
       -2 -1    0    0    0  501 -0.0000000000e+00 -0.0000000000e+00 -1.1194176629e+03 1.1194176629e+03 0.0000000000e+00 0.0000e+00 -1.0000e+00
  5000001  2    1    2    0    0 +5.3523044988e+01 -1.0386932768e+01 -8.4508821409e+02 1.3108296971e+03 1.0005637414e+03 0.0000e+00 0.0000e+00
  5000521  1    3    3    0    0 +3.7704475618e+02 -1.6771593431e+02 -8.5647982947e+02 9.5076236836e+02 1.0000000000e+01 0.0000e+00 1.0000e+00
 -5000521  1    3    3    0    0 -3.2352171119e+02 +1.5732900155e+02 +1.1391615381e+01 3.6006732876e+02 1.0000000000e+01 0.0000e+00 -1.0000e+00
       21  1    1    2  502  501 -5.3523044988e+01 +1.0386932768e+01 -2.3533614381e+01 5.9383800173e+01 0.0000000000e+00 0.0000e+00 1.0000e+00
<mgrwt>
<rscale>  1 0.10020481E+04</rscale>
<asrwt>0</asrwt>
<pdfrwt beam="1">  1        2 0.38583975E-01 0.10020481E+04</pdfrwt>
<pdfrwt beam="2">  1       -2 0.17221810E+00 0.10020481E+04</pdfrwt>
<totfact> 0.27493147E+01</totfact>
</mgrwt>
</event>
<event>
 5      1 +3.0741590e+01 6.95600200e+02 7.81860800e-03 9.72478600e-02
       21 -1    0    0  501  502 +0.0000000000e+00 +0.0000000000e+00 +8.4995800489e+02 8.4995800489e+02 0.0000000000e+00 0.0000e+00 1.0000e+00
        2 -1    0    0  502    0 -0.0000000000e+00 -0.0000000000e+00 -2.3776809296e+02 2.3776809296e+02 0.0000000000e+00 0.0000e+00 -1.0000e+00
  5000521  1    1    2    0    0 +1.0769956208e+02 +8.9402797813e+01 -1.9195581587e+02 2.3777950117e+02 1.0000000000e+01 0.0000e+00 -1.0000e+00
 -5000521  1    1    2    0    0 -1.6567163655e+02 -1.0949059421e+02 +4.7182785041e+02 5.1201250161e+02 1.0000000000e+01 0.0000e+00 1.0000e+00
        2  1    1    2  501    0 +5.7972074473e+01 +2.0087796397e+01 +3.3231787739e+02 3.3793409508e+02 0.0000000000e+00 0.0000e+00 -1.0000e+00
<mgrwt>
<rscale>  1 0.69560024E+03</rscale>
<asrwt>0</asrwt>
<pdfrwt beam="1">  1       21 0.13076277E+00 0.69560024E+03</pdfrwt>
<pdfrwt beam="2">  1        2 0.36579707E-01 0.69560024E+03</pdfrwt>
<totfact> 0.64029595E+02</totfact>
</mgrwt>
</event>
<event>
 6      1 +3.0741590e+01 9.23556200e+02 7.81860800e-03 9.39660500e-02
       -1 -1    0    0    0  501 -0.0000000000e+00 +0.0000000000e+00 +2.9547568011e+02 2.9547568011e+02 0.0000000000e+00 0.0000e+00 -1.0000e+00
        1 -1    0    0  502    0 +0.0000000000e+00 -0.0000000000e+00 -1.8474168907e+03 1.8474168907e+03 0.0000000000e+00 0.0000e+00 1.0000e+00
  5000001  2    1    2    0    0 -1.3559112152e+02 +1.7561494629e+02 -4.6589438613e+02 1.0344146655e+03 8.9651021167e+02 0.0000e+00 0.0000e+00
  5000521  1    3    3    0    0 +1.6704693222e+01 -1.7337572703e+02 -6.0442511675e+02 6.2910087526e+02 1.0000000000e+01 0.0000e+00 1.0000e+00
 -5000521  1    3    3    0    0 -1.5229581474e+02 +3.4899067332e+02 +1.3853073061e+02 4.0531379026e+02 1.0000000000e+01 0.0000e+00 -1.0000e+00
       21  1    1    2  502  501 +1.3559112152e+02 -1.7561494629e+02 -1.0860468245e+03 1.1084779053e+03 0.0000000000e+00 0.0000e+00 1.0000e+00
<mgrwt>
<rscale>  1 0.92355624E+03</rscale>
<asrwt>0</asrwt>
<pdfrwt beam="1">  1        1 0.28421797E+00 0.92355624E+03</pdfrwt>
<pdfrwt beam="2">  1       -1 0.45457799E-01 0.92355624E+03</pdfrwt>
<totfact> 0.18488360E+01</totfact>
</mgrwt>
</event>
<event>
 6      1 +3.0741590e+01 1.00131700e+03 7.81860800e-03 9.30710100e-02
       -1 -1    0    0    0  501 -0.0000000000e+00 +0.0000000000e+00 +1.0132189691e+02 1.0132189691e+02 0.0000000000e+00 0.0000e+00 1.0000e+00
        1 -1    0    0  502    0 +0.0000000000e+00 -0.0000000000e+00 -2.7053145573e+03 2.7053145573e+03 0.0000000000e+00 0.0000e+00 -1.0000e+00
  5000001  2    1    2    0    0 -4.0563859138e+01 +8.9373642027e+00 -2.4400566314e+03 2.6375201488e+03 1.0004553303e+03 0.0000e+00 0.0000e+00
  5000521  1    3    3    0    0 -6.7128390886e+01 -3.6565649671e+02 -2.0939527661e+03 2.1267226150e+03 1.0000000000e+01 0.0000e+00 -1.0000e+00
 -5000521  1    3    3    0    0 +2.6564531748e+01 +3.7459386091e+02 -3.4610386526e+02 5.1079753379e+02 1.0000000000e+01 0.0000e+00 1.0000e+00
       21  1    1    2  502  501 +4.0563859138e+01 -8.9373642027e+00 -1.6393602902e+02 1.6911630541e+02 0.0000000000e+00 0.0000e+00 -1.0000e+00
<mgrwt>
<rscale>  1 0.10013172E+04</rscale>
<asrwt>0</asrwt>
<pdfrwt beam="1">  1        1 0.41620225E+00 0.10013172E+04</pdfrwt>
<pdfrwt beam="2">  1       -1 0.15587984E-01 0.10013172E+04</pdfrwt>
<totfact> 0.30629558E+01</totfact>
</mgrwt>
</event>
<event>
 6      1 +3.0741590e+01 1.00072300e+03 7.81860800e-03 9.30775200e-02
        2 -1    0    0  502    0 -0.0000000000e+00 +0.0000000000e+00 +1.2713962706e+03 1.2713962706e+03 0.0000000000e+00 0.0000e+00 -1.0000e+00
       21 -1    0    0  501  502 +0.0000000000e+00 -0.0000000000e+00 -3.1780790750e+02 3.1780790750e+02 0.0000000000e+00 0.0000e+00 1.0000e+00
  5000001  2    1    2    0    0 +3.0002425410e+01 -3.6610887145e+01 +1.0690914977e+03 1.4643783928e+03 9.9960339349e+02 0.0000e+00 0.0000e+00
  5000521  1    3    3    0    0 +1.9995292061e+02 -3.4826120440e+02 +7.4848462939e+01 4.0861880690e+02 1.0000000000e+01 0.0000e+00 1.0000e+00
 -5000521  1    3    3    0    0 -1.6995049520e+02 +3.1165031726e+02 +9.9424303475e+02 1.0557595859e+03 1.0000000000e+01 0.0000e+00 -1.0000e+00
        2  1    1    2  501    0 -3.0002425410e+01 +3.6610887145e+01 -1.1550313456e+02 1.2482578532e+02 0.0000000000e+00 0.0000e+00 -1.0000e+00
<mgrwt>
<rscale>  1 0.10007235E+04</rscale>
<asrwt>0</asrwt>
<pdfrwt beam="1">  1       21 0.48893525E-01 0.10007235E+04</pdfrwt>
<pdfrwt beam="2">  1        2 0.19559942E+00 0.10007235E+04</pdfrwt>
<totfact> 0.76053167E+02</totfact>
</mgrwt>
</event>
<event>
 6      1 +3.0741590e+01 9.98454500e+02 7.81860800e-03 9.31024200e-02
        1 -1    0    0  502    0 +0.0000000000e+00 +0.0000000000e+00 +2.1997582264e+03 2.1997582264e+03 0.0000000000e+00 0.0000e+00 1.0000e+00
       -1 -1    0    0    0  501 -0.0000000000e+00 -0.0000000000e+00 -1.4530626062e+02 1.4530626062e+02 0.0000000000e+00 0.0000e+00 -1.0000e+00
  5000001  2    1    2    0    0 +3.9974687982e+01 +3.8433362210e+01 +2.0601177040e+03 2.2893222265e+03 9.9691333797e+02 0.0000e+00 0.0000e+00
  5000521  1    3    3    0    0 -1.1167832257e+02 -7.1438007946e+01 -7.0487744335e+01 1.5047909760e+02 1.0000000000e+01 0.0000e+00 -1.0000e+00
 -5000521  1    3    3    0    0 +1.5165301055e+02 +1.0987137016e+02 +2.1306054484e+03 2.1388431289e+03 1.0000000000e+01 0.0000e+00 1.0000e+00
       21  1    1    2  502  501 -3.9974687982e+01 -3.8433362210e+01 -5.6657382833e+00 5.5742260452e+01 0.0000000000e+00 0.0000e+00 -1.0000e+00
<mgrwt>
<rscale>  1 0.99845446E+03</rscale>
<asrwt>0</asrwt>
<pdfrwt beam="1">  1        1 0.33842432E+00 0.99845446E+03</pdfrwt>
<pdfrwt beam="2">  1       -1 0.22354811E-01 0.99845446E+03</pdfrwt>
<totfact> 0.37338322E+01</totfact>
</mgrwt>
</event>
<event>
 6      1 +3.0741590e+01 1.02228900e+03 7.81860800e-03 9.28443100e-02
       -2 -1    0    0    0  501 -0.0000000000e+00 +0.0000000000e+00 +3.0517132354e+02 3.0517132354e+02 0.0000000000e+00 0.0000e+00 1.0000e+00
        2 -1    0    0  502    0 +0.0000000000e+00 -0.0000000000e+00 -1.2292890654e+03 1.2292890654e+03 0.0000000000e+00 0.0000e+00 -1.0000e+00
  5000001  2    1    2    0    0 -3.7396874986e+01 -9.2599824793e+01 -5.7832582865e+02 1.1745363677e+03 1.0173994600e+03 0.0000e+00 0.0000e+00
  5000521  1    3    3    0    0 -1.1211013567e+02 +2.2993339617e+02 -7.5635043623e+02 7.9850111558e+02 1.0000000000e+01 0.0000e+00 -1.0000e+00
 -5000521  1    3    3    0    0 +7.4713260684e+01 -3.2253322096e+02 +1.7802460758e+02 3.7603525214e+02 1.0000000000e+01 0.0000e+00 1.0000e+00
       21  1    1    2  502  501 +3.7396874986e+01 +9.2599824793e+01 -3.4579191323e+02 3.5992402124e+02 0.0000000000e+00 0.0000e+00 -1.0000e+00
<mgrwt>
<rscale>  1 0.10222891E+04</rscale>
<asrwt>0</asrwt>
<pdfrwt beam="1">  1        2 0.18912139E+00 0.10222891E+04</pdfrwt>
<pdfrwt beam="2">  1       -2 0.46949435E-01 0.10222891E+04</pdfrwt>
<totfact> 0.77954878E+01</totfact>
</mgrwt>
</event>
<event>
 6      1 +3.0741590e+01 1.04756900e+03 7.81860800e-03 9.25785800e-02
       -1 -1    0    0    0  501 -0.0000000000e+00 +0.0000000000e+00 +2.1341729174e+03 2.1341729174e+03 0.0000000000e+00 0.0000e+00 -1.0000e+00
        1 -1    0    0  502    0 +0.0000000000e+00 -0.0000000000e+00 -2.6874311200e+02 2.6874311200e+02 0.0000000000e+00 0.0000e+00 1.0000e+00
  5000001  2    1    2    0    0 +2.4233976373e+02 -1.8542068314e+02 +8.6987156554e+02 1.3616448833e+03 1.0021431319e+03 0.0000e+00 0.0000e+00
  5000521  1    3    3    0    0 +3.1293858608e+02 +1.4029471022e+02 +9.5731621119e+02 1.0169402601e+03 1.0000000000e+01 0.0000e+00 -1.0000e+00
 -5000521  1    3    3    0    0 -7.0598822355e+01 -3.2571539337e+02 -8.7444645644e+01 3.4470462319e+02 1.0000000000e+01 0.0000e+00 1.0000e+00
       21  1    1    2  502  501 -2.4233976373e+02 +1.8542068314e+02 +9.9555823990e+02 1.0412711462e+03 0.0000000000e+00 0.0000e+00 1.0000e+00
<mgrwt>
<rscale>  1 0.10475687E+04</rscale>
<asrwt>0</asrwt>
<pdfrwt beam="1">  1        1 0.41345096E-01 0.10475687E+04</pdfrwt>
<pdfrwt beam="2">  1       -1 0.32833428E+00 0.10475687E+04</pdfrwt>
<totfact> 0.22124152E+00</totfact>
</mgrwt>
</event>
<event>
 6      1 +3.0741590e+01 1.05051100e+03 7.81860800e-03 9.25481700e-02
       -2 -1    0    0    0  501 -0.0000000000e+00 +0.0000000000e+00 +1.6945087187e+03 1.6945087187e+03 0.0000000000e+00 0.0000e+00 -1.0000e+00
        2 -1    0    0  502    0 +0.0000000000e+00 -0.0000000000e+00 -2.2860423840e+02 2.2860423840e+02 0.0000000000e+00 0.0000e+00 1.0000e+00
  5000001  2    1    2    0    0 -2.9045538221e+01 -1.9206237164e+02 +1.2417543665e+03 1.6265073749e+03 1.0323956295e+03 0.0000e+00 0.0000e+00
  5000521  1    3    3    0    0 +1.9390771806e+02 -1.2748866008e+02 +1.3502555575e+03 1.3700889139e+03 1.0000000000e+01 0.0000e+00 -1.0000e+00
 -5000521  1    3    3    0    0 -2.2295325628e+02 -6.4573711562e+01 -1.0850119092e+02 2.5641846100e+02 1.0000000000e+01 0.0000e+00 1.0000e+00
       21  1    1    2  502  501 +2.9045538221e+01 +1.9206237164e+02 +2.2415011375e+02 2.9660558219e+02 0.0000000000e+00 0.0000e+00 -1.0000e+00
<mgrwt>
<rscale>  1 0.10505105E+04</rscale>
<asrwt>0</asrwt>
<pdfrwt beam="1">  1        2 0.35169884E-01 0.10505105E+04</pdfrwt>
<pdfrwt beam="2">  1       -2 0.26069364E+00 0.10505105E+04</pdfrwt>
<totfact> 0.82278378E+00</totfact>
</mgrwt>
</event>
<event>
 6      1 +3.0741590e+01 1.02229400e+03 7.81860800e-03 9.28442600e-02
        2 -1    0    0  502    0 +0.0000000000e+00 +0.0000000000e+00 +1.0751196864e+03 1.0751196864e+03 0.0000000000e+00 0.0000e+00 -1.0000e+00
       -2 -1    0    0    0  501 -0.0000000000e+00 -0.0000000000e+00 -2.6122261809e+02 2.6122261809e+02 0.0000000000e+00 0.0000e+00 1.0000e+00
  5000001  2    1    2    0    0 -7.8672049294e+00 +1.9406990805e+01 +7.4669533979e+02 1.2659534096e+03 1.0220790481e+03 0.0000e+00 0.0000e+00
  5000521  1    3    3    0    0 +3.9181375393e+02 -3.1048005569e+02 +3.1114865724e+02 5.8892221019e+02 1.0000000000e+01 0.0000e+00 1.0000e+00
 -5000521  1    3    3    0    0 -3.9968095886e+02 +3.2988704650e+02 +4.3554668254e+02 6.7703119943e+02 1.0000000000e+01 0.0000e+00 -1.0000e+00
       21  1    1    2  502  501 +7.8672049294e+00 -1.9406990805e+01 +6.7201728541e+01 7.0388894894e+01 0.0000000000e+00 0.0000e+00 1.0000e+00
<mgrwt>
<rscale>  1 0.10222936E+04</rscale>
<asrwt>0</asrwt>
<pdfrwt beam="1">  1        2 0.16540303E+00 0.10222936E+04</pdfrwt>
<pdfrwt beam="2">  1       -2 0.40188095E-01 0.10222936E+04</pdfrwt>
<totfact> 0.13179535E+02</totfact>
</mgrwt>
</event>
<event>
 6      1 +3.0741590e+01 1.00326600e+03 7.81860800e-03 9.30497000e-02
       -1 -1    0    0    0  501 -0.0000000000e+00 +0.0000000000e+00 +2.8830415611e+02 2.8830415611e+02 0.0000000000e+00 0.0000e+00 -1.0000e+00
        1 -1    0    0  502    0 +0.0000000000e+00 -0.0000000000e+00 -1.0500701368e+03 1.0500701368e+03 0.0000000000e+00 0.0000e+00 1.0000e+00
  5000001  2    1    2    0    0 +4.5009216736e+01 -4.1818232800e+01 -7.8376373772e+02 1.2731171439e+03 1.0013825799e+03 0.0000e+00 0.0000e+00
  5000521  1    3    3    0    0 -1.9384480428e+02 -1.2027691281e+02 +1.7130570170e+02 2.8546100844e+02 1.0000000000e+01 0.0000e+00 -1.0000e+00
 -5000521  1    3    3    0    0 +2.3885402102e+02 +7.8458680013e+01 -9.5506943942e+02 9.8765613547e+02 1.0000000000e+01 0.0000e+00 1.0000e+00
       21  1    1    2  502  501 -4.5009216736e+01 +4.1818232800e+01 +2.1997757010e+01 6.5257149028e+01 0.0000000000e+00 0.0000e+00 -1.0000e+00
<mgrwt>
<rscale>  1 0.10032655E+04</rscale>
<asrwt>0</asrwt>
<pdfrwt beam="1">  1        1 0.16154925E+00 0.10032655E+04</pdfrwt>
<pdfrwt beam="2">  1       -1 0.44354486E-01 0.10032655E+04</pdfrwt>
<totfact> 0.69767472E+01</totfact>
</mgrwt>
</event>
<event>
 6      1 +3.0741590e+01 1.00392900e+03 7.81860800e-03 9.30424600e-02
       -1 -1    0    0    0  501 -0.0000000000e+00 +0.0000000000e+00 +1.7590587044e+02 1.7590587044e+02 0.0000000000e+00 0.0000e+00 -1.0000e+00
        1 -1    0    0  502    0 +0.0000000000e+00 -0.0000000000e+00 -1.5280040271e+03 1.5280040271e+03 0.0000000000e+00 0.0000e+00 1.0000e+00
  5000001  2    1    2    0    0 +2.0894460844e+01 +2.7666172415e+00 -1.3504999977e+03 1.6827725662e+03 1.0037076433e+03 0.0000e+00 0.0000e+00
  5000521  1    3    3    0    0 -2.8879780755e+02 -3.6746864891e+02 -9.3687281051e+02 1.0470281967e+03 1.0000000000e+01 0.0000e+00 1.0000e+00
 -5000521  1    3    3    0    0 +3.0969226840e+02 +3.7023526615e+02 -4.1362718714e+02 6.3574436950e+02 1.0000000000e+01 0.0000e+00 -1.0000e+00
       21  1    1    2  502  501 -2.0894460844e+01 -2.7666172415e+00 -1.5981590202e+00 2.1137331364e+01 0.0000000000e+00 0.0000e+00 1.0000e+00
<mgrwt>
<rscale>  1 0.10039289E+04</rscale>
<asrwt>0</asrwt>
<pdfrwt beam="1">  1        1 0.23507753E+00 0.10039289E+04</pdfrwt>
<pdfrwt beam="2">  1       -1 0.27062443E-01 0.10039289E+04</pdfrwt>
<totfact> 0.76634589E+01</totfact>
</mgrwt>
</event>
<event>
 6      1 +3.0741590e+01 1.01191500e+03 7.81860800e-03 9.29557300e-02
        1 -1    0    0  502    0 +0.0000000000e+00 +0.0000000000e+00 +5.9454063915e+02 5.9454063915e+02 0.0000000000e+00 0.0000e+00 -1.0000e+00
       -1 -1    0    0    0  501 -0.0000000000e+00 -0.0000000000e+00 -5.4121499019e+02 5.4121499019e+02 0.0000000000e+00 0.0000e+00 1.0000e+00
  5000001  2    1    2    0    0 +1.0130881997e+02 +6.0818057375e+01 +7.8452180479e+01 1.0149514254e+03 1.0049922080e+03 0.0000e+00 0.0000e+00
  5000521  1    3    3    0    0 +6.1595502400e+01 -3.3769330265e+02 -3.0581371127e+02 4.5983997061e+02 1.0000000000e+01 0.0000e+00 1.0000e+00
 -5000521  1    3    3    0    0 +3.9713317574e+01 +3.9851136003e+02 +3.8426589175e+02 5.5511145477e+02 1.0000000000e+01 0.0000e+00 -1.0000e+00
       21  1    1    2  502  501 -1.0130881997e+02 -6.0818057375e+01 -2.5126531521e+01 1.2080420396e+02 0.0000000000e+00 0.0000e+00 1.0000e+00
<mgrwt>
<rscale>  1 0.10119148E+04</rscale>
<asrwt>0</asrwt>
<pdfrwt beam="1">  1        1 0.91467791E-01 0.10119148E+04</pdfrwt>
<pdfrwt beam="2">  1       -1 0.83263844E-01 0.10119148E+04</pdfrwt>
<totfact> 0.49790184E+01</totfact>
</mgrwt>
</event>
<event>
 6      1 +3.0741590e+01 9.83397300e+02 7.81860800e-03 9.32694400e-02
        1 -1    0    0  502    0 +0.0000000000e+00 +0.0000000000e+00 +1.1004256757e+03 1.1004256757e+03 0.0000000000e+00 0.0000e+00 -1.0000e+00
       -1 -1    0    0    0  501 -0.0000000000e+00 -0.0000000000e+00 -2.7089922039e+02 2.7089922039e+02 0.0000000000e+00 0.0000e+00 1.0000e+00
  5000001  2    1    2    0    0 +4.3634925842e+01 +2.6115152354e+01 +6.3578827086e+02 1.1710238925e+03 9.8208157678e+02 0.0000e+00 0.0000e+00
  5000521  1    3    3    0    0 +3.7205190500e+02 -1.0633667746e+02 -5.8598470249e+01 3.9148932259e+02 1.0000000000e+01 0.0000e+00 -1.0000e+00
 -5000521  1    3    3    0    0 -3.2841697916e+02 +1.3245182981e+02 +6.9438674111e+02 7.7953456989e+02 1.0000000000e+01 0.0000e+00 1.0000e+00
       21  1    1    2  502  501 -4.3634925842e+01 -2.6115152354e+01 +1.9373818446e+02 2.0030100363e+02 0.0000000000e+00 0.0000e+00 1.0000e+00
<mgrwt>
<rscale>  1 0.98339729E+03</rscale>
<asrwt>0</asrwt>
<pdfrwt beam="1">  1        1 0.16929625E+00 0.98339729E+03</pdfrwt>
<pdfrwt beam="2">  1       -1 0.41676804E-01 0.98339729E+03</pdfrwt>
<totfact> 0.71796728E+01</totfact>
</mgrwt>
</event>
<event>
 6      1 +3.0741590e+01 9.66449100e+02 7.81860800e-03 9.34612800e-02
       -1 -1    0    0    0  501 -0.0000000000e+00 +0.0000000000e+00 +8.2412401334e+01 8.2412401334e+01 0.0000000000e+00 0.0000e+00 1.0000e+00
        1 -1    0    0  502    0 +0.0000000000e+00 -0.0000000000e+00 -3.0263221750e+03 3.0263221750e+03 0.0000000000e+00 0.0000e+00 -1.0000e+00
  5000001  2    1    2    0    0 -1.3081512067e+01 +2.5539456712e+01 -2.8946739998e+03 3.0517472862e+03 9.6602305562e+02 0.0000e+00 0.0000e+00
  5000521  1    3    3    0    0 +2.6402246075e+02 +2.6931691766e+02 -2.4257758482e+03 2.4549394957e+03 1.0000000000e+01 0.0000e+00 -1.0000e+00
 -5000521  1    3    3    0    0 -2.7710397282e+02 -2.4377746095e+02 -4.6889815156e+02 5.9680779046e+02 1.0000000000e+01 0.0000e+00 1.0000e+00
       21  1    1    2  502  501 +1.3081512067e+01 -2.5539456712e+01 -4.9235773874e+01 5.6987290128e+01 0.0000000000e+00 0.0000e+00 1.0000e+00
<mgrwt>
<rscale>  1 0.96644914E+03</rscale>
<asrwt>0</asrwt>
<pdfrwt beam="1">  1        1 0.46558801E+00 0.96644914E+03</pdfrwt>
<pdfrwt beam="2">  1       -1 0.12678831E-01 0.96644914E+03</pdfrwt>
<totfact> 0.25449165E+01</totfact>
</mgrwt>
</event>
<event>
 6      1 +3.0741590e+01 9.73822600e+02 7.81860800e-03 9.33773100e-02
        2 -1    0    0  502    0 +0.0000000000e+00 +0.0000000000e+00 +2.0947646841e+03 2.0947646841e+03 0.0000000000e+00 0.0000e+00 -1.0000e+00
       -2 -1    0    0    0  501 -0.0000000000e+00 -0.0000000000e+00 -1.6213260545e+02 1.6213260545e+02 0.0000000000e+00 0.0000e+00 1.0000e+00
  5000001  2    1    2    0    0 +1.1462759911e+01 -2.2164862193e+01 +1.3026214605e+03 1.6263926861e+03 9.7350286291e+02 0.0000e+00 0.0000e+00
  5000521  1    3    3    0    0 -2.7142604986e+02 -1.0084121021e+02 -1.3546897357e+00 2.8972898613e+02 1.0000000000e+01 0.0000e+00 1.0000e+00
 -5000521  1    3    3    0    0 +2.8288880977e+02 +7.8676348016e+01 +1.3039761503e+03 1.3366637000e+03 1.0000000000e+01 0.0000e+00 -1.0000e+00
       21  1    1    2  502  501 -1.1462759911e+01 +2.2164862193e+01 +6.3001061815e+02 6.3050460344e+02 0.0000000000e+00 0.0000e+00 1.0000e+00
<mgrwt>
<rscale>  1 0.97382262E+03</rscale>
<asrwt>0</asrwt>
<pdfrwt beam="1">  1        2 0.32227147E+00 0.97382262E+03</pdfrwt>
<pdfrwt beam="2">  1       -2 0.24943479E-01 0.97382262E+03</pdfrwt>
<totfact> 0.85727509E+01</totfact>
</mgrwt>
</event>
<event>
 6      1 +3.0741590e+01 9.65680300e+02 7.81860800e-03 9.34700800e-02
        3 -1    0    0  502    0 +0.0000000000e+00 +0.0000000000e+00 +2.5751334888e+02 2.5751334888e+02 0.0000000000e+00 0.0000e+00 -1.0000e+00
       -3 -1    0    0    0  501 -0.0000000000e+00 -0.0000000000e+00 -1.5353856504e+03 1.5353856504e+03 0.0000000000e+00 0.0000e+00 1.0000e+00
  5000001  2    1    2    0    0 +3.6705059747e+01 +7.9670426330e+01 -6.6198358997e+02 1.1707948735e+03 9.6168795577e+02 0.0000e+00 0.0000e+00
  5000521  1    3    3    0    0 -3.2502020016e+02 +2.2769615812e+02 -6.7110270808e+02 7.7971951093e+02 1.0000000000e+01 0.0000e+00 1.0000e+00
 -5000521  1    3    3    0    0 +3.6172525990e+02 -1.4802573179e+02 +9.1191181099e+00 3.9107536261e+02 1.0000000000e+01 0.0000e+00 -1.0000e+00
       21  1    1    2  502  501 -3.6705059747e+01 -7.9670426330e+01 -6.1588871153e+02 6.2210412571e+02 0.0000000000e+00 0.0000e+00 1.0000e+00
<mgrwt>
<rscale>  1 0.96568026E+03</rscale>
<asrwt>0</asrwt>
<pdfrwt beam="1">  1        3 0.39617439E-01 0.96568026E+03</pdfrwt>
<pdfrwt beam="2">  1       -3 0.23621317E+00 0.96568026E+03</pdfrwt>
<totfact> 0.14569777E+00</totfact>
</mgrwt>
</event>
<event>
 6      1 +3.0741590e+01 8.99799100e+02 7.81860800e-03 9.42583300e-02
       -1 -1    0    0    0  501 -0.0000000000e+00 +0.0000000000e+00 +3.5403767906e+02 3.5403767906e+02 0.0000000000e+00 0.0000e+00 1.0000e+00
        1 -1    0    0  502    0 +0.0000000000e+00 -0.0000000000e+00 -6.9604997761e+02 6.9604997761e+02 0.0000000000e+00 0.0000e+00 -1.0000e+00
  5000001  2    1    2    0    0 +6.7789025336e+01 -5.3909804639e+01 -2.7596685757e+02 9.4116741398e+02 8.9562088836e+02 0.0000e+00 0.0000e+00
  5000521  1    3    3    0    0 -8.6100784552e+01 -4.2343432899e+02 +3.5798475916e+01 4.3369517745e+02 1.0000000000e+01 0.0000e+00 1.0000e+00
 -5000521  1    3    3    0    0 +1.5388980989e+02 +3.6952452435e+02 -3.1176533348e+02 5.0747223653e+02 1.0000000000e+01 0.0000e+00 -1.0000e+00
       21  1    1    2  502  501 -6.7789025336e+01 +5.3909804639e+01 -6.6045440986e+01 1.0892024269e+02 0.0000000000e+00 0.0000e+00 1.0000e+00
<mgrwt>
<rscale>  1 0.89979909E+03</rscale>
<asrwt>0</asrwt>
<pdfrwt beam="1">  1        1 0.10708461E+00 0.89979909E+03</pdfrwt>
<pdfrwt beam="2">  1       -1 0.54467335E-01 0.89979909E+03</pdfrwt>
<totfact> 0.94349561E+01</totfact>
</mgrwt>
</event>
<event>
 6      1 +3.0741590e+01 9.98332700e+02 7.81860800e-03 9.31037500e-02
        3 -1    0    0  502    0 +0.0000000000e+00 +0.0000000000e+00 +1.6635191764e+03 1.6635191764e+03 0.0000000000e+00 0.0000e+00 1.0000e+00
       -3 -1    0    0    0  501 -0.0000000000e+00 -0.0000000000e+00 -1.6937464524e+02 1.6937464524e+02 0.0000000000e+00 0.0000e+00 -1.0000e+00
  5000001  2    1    2    0    0 +3.7198171823e+01 -3.4330758290e+00 +1.3212529551e+03 1.6560125420e+03 9.9763353895e+02 0.0000e+00 0.0000e+00
  5000521  1    3    3    0    0 -1.2004548317e+02 -4.6935028098e+02 +4.8331564737e+02 6.8439361428e+02 1.0000000000e+01 0.0000e+00 -1.0000e+00
 -5000521  1    3    3    0    0 +1.5724365500e+02 +4.6591720515e+02 +8.3793730772e+02 9.7161892775e+02 1.0000000000e+01 0.0000e+00 1.0000e+00
       21  1    1    2  502  501 -3.7198171823e+01 +3.4330758290e+00 +1.7289157610e+02 1.7688127963e+02 0.0000000000e+00 0.0000e+00 1.0000e+00
<mgrwt>
<rscale>  1 0.99833269E+03</rscale>
<asrwt>0</asrwt>
<pdfrwt beam="1">  1        3 0.25592602E+00 0.99833269E+03</pdfrwt>
<pdfrwt beam="2">  1       -3 0.26057639E-01 0.99833269E+03</pdfrwt>
<totfact> 0.25449644E+00</totfact>
</mgrwt>
</event>
<event>
 6      1 +3.0741590e+01 1.00268500e+03 7.81860800e-03 9.30560500e-02
        2 -1    0    0  502    0 +0.0000000000e+00 +0.0000000000e+00 +1.9550012256e+03 1.9550012256e+03 0.0000000000e+00 0.0000e+00 1.0000e+00
       -2 -1    0    0    0  501 -0.0000000000e+00 -0.0000000000e+00 -1.3746222768e+02 1.3746222768e+02 0.0000000000e+00 0.0000e+00 -1.0000e+00
  5000001  2    1    2    0    0 -1.9826784517e+01 +4.7302697406e+00 +1.8126666869e+03 2.0715059665e+03 1.0024774185e+03 0.0000e+00 0.0000e+00
  5000521  1    3    3    0    0 +6.2901683130e+01 +4.8003317069e+02 +1.1824457096e+03 1.2777583194e+03 1.0000000000e+01 0.0000e+00 1.0000e+00
 -5000521  1    3    3    0    0 -8.2728467647e+01 -4.7530290095e+02 +6.3022097735e+02 7.9374764712e+02 1.0000000000e+01 0.0000e+00 -1.0000e+00
       21  1    1    2  502  501 +1.9826784517e+01 -4.7302697406e+00 +4.8723109637e+00 2.0957486734e+01 0.0000000000e+00 0.0000e+00 1.0000e+00
<mgrwt>
<rscale>  1 0.10026846E+04</rscale>
<asrwt>0</asrwt>
<pdfrwt beam="1">  1        2 0.30076940E+00 0.10026846E+04</pdfrwt>
<pdfrwt beam="2">  1       -2 0.21148037E-01 0.10026846E+04</pdfrwt>
<totfact> 0.13726887E+02</totfact>
</mgrwt>
</event>
<event>
 6      1 +3.0741590e+01 1.08382900e+03 7.81860800e-03 9.22109800e-02
       21 -1    0    0  501  502 +0.0000000000e+00 +0.0000000000e+00 +1.3485749382e+02 1.3485749382e+02 0.0000000000e+00 0.0000e+00 -1.0000e+00
        2 -1    0    0  502    0 -0.0000000000e+00 -0.0000000000e+00 -3.3243890136e+03 3.3243890136e+03 0.0000000000e+00 0.0000e+00 -1.0000e+00
  5000001  2    1    2    0    0 -1.6331602071e+02 -8.2878593323e+01 -3.0240816159e+03 3.2124375640e+03 1.0682436516e+03 0.0000e+00 0.0000e+00
  5000521  1    3    3    0    0 -2.2250650267e+02 -3.5050469132e+02 -4.0853392734e+02 5.8254841185e+02 1.0000000000e+01 0.0000e+00 1.0000e+00
 -5000521  1    3    3    0    0 +5.9190481967e+01 +2.6762609799e+02 -2.6155476886e+03 2.6298891522e+03 1.0000000000e+01 0.0000e+00 -1.0000e+00
        2  1    1    2  501    0 +1.6331602071e+02 +8.2878593323e+01 -1.6544990385e+02 2.4680894338e+02 0.0000000000e+00 0.0000e+00 -1.0000e+00
<mgrwt>
<rscale>  1 0.10838291E+04</rscale>
<asrwt>0</asrwt>
<pdfrwt beam="1">  1       21 0.20747308E-01 0.10838291E+04</pdfrwt>
<pdfrwt beam="2">  1        2 0.51144444E+00 0.10838291E+04</pdfrwt>
<totfact> 0.27783302E+02</totfact>
</mgrwt>
</event>
<event>
 6      1 +3.0741590e+01 9.94404100e+02 7.81860800e-03 9.31470400e-02
        2 -1    0    0  502    0 +0.0000000000e+00 +0.0000000000e+00 +1.9840565145e+03 1.9840565145e+03 0.0000000000e+00 0.0000e+00 1.0000e+00
       -2 -1    0    0    0  501 -0.0000000000e+00 -0.0000000000e+00 -1.3657183458e+02 1.3657183458e+02 0.0000000000e+00 0.0000e+00 -1.0000e+00
  5000001  2    1    2    0    0 +7.9633005309e-01 -2.4124583197e+01 +1.6864359929e+03 1.9577808460e+03 9.9411108701e+02 0.0000e+00 0.0000e+00
  5000521  1    3    3    0    0 +2.2709399022e+02 +3.6952588796e+02 +3.8738659312e+02 5.8162654237e+02 1.0000000000e+01 0.0000e+00 -1.0000e+00
 -5000521  1    3    3    0    0 -2.2629766017e+02 -3.9365047115e+02 +1.2990493997e+03 1.3761543036e+03 1.0000000000e+01 0.0000e+00 1.0000e+00
       21  1    1    2  502  501 -7.9633005309e-01 +2.4124583197e+01 +1.6104868702e+02 1.6284750304e+02 0.0000000000e+00 0.0000e+00 -1.0000e+00
<mgrwt>
<rscale>  1 0.99440408E+03</rscale>
<asrwt>0</asrwt>
<pdfrwt beam="1">  1        2 0.30523944E+00 0.99440408E+03</pdfrwt>
<pdfrwt beam="2">  1       -2 0.21011053E-01 0.99440408E+03</pdfrwt>
<totfact> 0.13391759E+02</totfact>
</mgrwt>
</event>
<event>
 6      1 +3.0741590e+01 1.00621200e+03 7.81860800e-03 9.30175700e-02
        1 -1    0    0  502    0 +0.0000000000e+00 +0.0000000000e+00 +1.1763247588e+03 1.1763247588e+03 0.0000000000e+00 0.0000e+00 -1.0000e+00
       -1 -1    0    0    0  501 -0.0000000000e+00 -0.0000000000e+00 -4.1755847434e+02 4.1755847434e+02 0.0000000000e+00 0.0000e+00 1.0000e+00
  5000001  2    1    2    0    0 -2.7782349937e+01 -1.1567570351e+02 +2.0422984685e+02 1.0267294727e+03 9.9915506924e+02 0.0000e+00 0.0000e+00
  5000521  1    3    3    0    0 -2.3479057197e+02 -1.1094753567e+02 -3.4946378603e+02 4.3550075328e+02 1.0000000000e+01 0.0000e+00 1.0000e+00
 -5000521  1    3    3    0    0 +2.0700822203e+02 -4.7281678355e+00 +5.5369363288e+02 5.9122871941e+02 1.0000000000e+01 0.0000e+00 -1.0000e+00
       21  1    1    2  502  501 +2.7782349937e+01 +1.1567570351e+02 +5.5453643767e+02 5.6715376050e+02 0.0000000000e+00 0.0000e+00 -1.0000e+00
<mgrwt>
<rscale>  1 0.10062125E+04</rscale>
<asrwt>0</asrwt>
<pdfrwt beam="1">  1        1 0.18097304E+00 0.10062125E+04</pdfrwt>
<pdfrwt beam="2">  1       -1 0.64239766E-01 0.10062125E+04</pdfrwt>
<totfact> 0.27414671E+01</totfact>
</mgrwt>
</event>
<event>
 6      1 +3.0741590e+01 1.03942600e+03 7.81860800e-03 9.26633000e-02
        1 -1    0    0  502    0 -0.0000000000e+00 +0.0000000000e+00 +2.0931581888e+03 2.0931581888e+03 0.0000000000e+00 0.0000e+00 1.0000e+00
       21 -1    0    0  501  502 +0.0000000000e+00 -0.0000000000e+00 -1.6786017698e+02 1.6786017698e+02 0.0000000000e+00 0.0000e+00 -1.0000e+00
  5000001  2    1    2    0    0 -3.6659354165e+01 -3.4255671220e+01 +1.9464271785e+03 2.2065775635e+03 1.0382140546e+03 0.0000e+00 0.0000e+00
  5000521  1    3    3    0    0 +3.2304394396e+02 +1.8383325442e+02 +2.2528366579e+02 4.3474680589e+02 1.0000000000e+01 0.0000e+00 -1.0000e+00
 -5000521  1    3    3    0    0 -3.5970329812e+02 -2.1808892564e+02 +1.7211435128e+03 1.7718307576e+03 1.0000000000e+01 0.0000e+00 1.0000e+00
        1  1    1    2  501    0 +3.6659354165e+01 +3.4255671220e+01 -2.1129166773e+01 5.4440802226e+01 0.0000000000e+00 0.0000e+00 1.0000e+00
<mgrwt>
<rscale>  1 0.10394257E+04</rscale>
<asrwt>0</asrwt>
<pdfrwt beam="1">  1       21 0.25824644E-01 0.10394257E+04</pdfrwt>
<pdfrwt beam="2">  1        1 0.32202432E+00 0.10394257E+04</pdfrwt>
<totfact> 0.37644428E+02</totfact>
</mgrwt>
</event>
<event>
 6      1 +3.0741590e+01 1.00475400e+03 7.81860800e-03 9.30334600e-02
        2 -1    0    0  502    0 +0.0000000000e+00 +0.0000000000e+00 +1.3165172048e+03 1.3165172048e+03 0.0000000000e+00 0.0000e+00 1.0000e+00
       -2 -1    0    0    0  501 -0.0000000000e+00 -0.0000000000e+00 -2.5777216923e+02 2.5777216923e+02 0.0000000000e+00 0.0000e+00 -1.0000e+00
  5000001  2    1    2    0    0 +6.0225102332e+01 -6.1325588402e+01 +1.0903610416e+03 1.4827062829e+03 1.0010708414e+03 0.0000e+00 0.0000e+00
  5000521  1    3    3    0    0 -2.5539354475e+02 +5.9676291739e+01 -7.1994021771e+01 2.7215852305e+02 1.0000000000e+01 0.0000e+00 -1.0000e+00
 -5000521  1    3    3    0    0 +3.1561864708e+02 -1.2100188014e+02 +1.1623550634e+03 1.2105477598e+03 1.0000000000e+01 0.0000e+00 1.0000e+00
       21  1    1    2  502  501 -6.0225102332e+01 +6.1325588402e+01 -3.1616006085e+01 9.1583091149e+01 0.0000000000e+00 0.0000e+00 -1.0000e+00
<mgrwt>
<rscale>  1 0.10047541E+04</rscale>
<asrwt>0</asrwt>
<pdfrwt beam="1">  1        2 0.20254111E+00 0.10047541E+04</pdfrwt>
<pdfrwt beam="2">  1       -2 0.39657257E-01 0.10047541E+04</pdfrwt>
<totfact> 0.97018568E+01</totfact>
</mgrwt>
</event>
<event>
 6      1 +3.0741590e+01 9.99383800e+02 7.81860800e-03 9.30922100e-02
       -2 -1    0    0    0  501 -0.0000000000e+00 +0.0000000000e+00 +2.0374894194e+02 2.0374894194e+02 0.0000000000e+00 0.0000e+00 -1.0000e+00
        2 -1    0    0  502    0 +0.0000000000e+00 -0.0000000000e+00 -1.4795451100e+03 1.4795451100e+03 0.0000000000e+00 0.0000e+00 1.0000e+00
  5000001  2    1    2    0    0 +1.8031777463e+01 +4.4846051180e+01 -1.0390467636e+03 1.4416608716e+03 9.9821419475e+02 0.0000e+00 0.0000e+00
  5000521  1    3    3    0    0 +2.0398694328e+02 +4.7323677281e+02 -4.1259233126e+02 6.6022431641e+02 1.0000000000e+01 0.0000e+00 1.0000e+00
 -5000521  1    3    3    0    0 -1.8595516581e+02 -4.2839072163e+02 -6.2645443232e+02 7.8143655523e+02 1.0000000000e+01 0.0000e+00 -1.0000e+00
       21  1    1    2  502  501 -1.8031777463e+01 -4.4846051180e+01 -2.3674940446e+02 2.4163318029e+02 0.0000000000e+00 0.0000e+00 -1.0000e+00
<mgrwt>
<rscale>  1 0.99938376E+03</rscale>
<asrwt>0</asrwt>
<pdfrwt beam="1">  1        2 0.22762232E+00 0.99938376E+03</pdfrwt>
<pdfrwt beam="2">  1       -2 0.31345992E-01 0.99938376E+03</pdfrwt>
<totfact> 0.12289685E+02</totfact>
</mgrwt>
</event>
<event>
 6      1 +3.0741590e+01 1.00609600e+03 7.81860800e-03 9.30188400e-02
        5 -1    0    0  502    0 -0.0000000000e+00 +0.0000000000e+00 +8.0977352358e+02 8.0977352358e+02 0.0000000000e+00 0.0000e+00 -1.0000e+00
       21 -1    0    0  501  502 +0.0000000000e+00 -0.0000000000e+00 -3.6317167353e+02 3.6317167353e+02 0.0000000000e+00 0.0000e+00 1.0000e+00
  5000001  2    1    2    0    0 +5.9306573095e+01 -5.0887262941e+01 +4.0653688108e+02 1.0851272896e+03 1.0030564370e+03 0.0000e+00 0.0000e+00
  5000521  1    3    3    0    0 -6.9935622723e+01 +7.0184377346e+01 +7.1898157638e+02 7.2584526265e+02 1.0000000000e+01 0.0000e+00 -1.0000e+00
 -5000521  1    3    3    0    0 +1.2924219582e+02 -1.2107164029e+02 -3.1244469529e+02 3.5928202694e+02 1.0000000000e+01 0.0000e+00 1.0000e+00
        5  1    1    2  501    0 -5.9306573095e+01 +5.0887262941e+01 +4.0064968965e+01 8.7817907514e+01 0.0000000000e+00 0.0000e+00 -1.0000e+00
<mgrwt>
<rscale>  1 0.10060959E+04</rscale>
<asrwt>0</asrwt>
<pdfrwt beam="1">  1       21 0.55872565E-01 0.10060959E+04</pdfrwt>
<pdfrwt beam="2">  1        5 0.12458054E+00 0.10060959E+04</pdfrwt>
<totfact> 0.36513228E+01</totfact>
</mgrwt>
</event>
<event>
 6      1 +3.0741590e+01 9.97346400e+02 7.81860800e-03 9.31146000e-02
        2 -1    0    0  502    0 +0.0000000000e+00 +0.0000000000e+00 +7.7291930936e+02 7.7291930936e+02 0.0000000000e+00 0.0000e+00 -1.0000e+00
       -2 -1    0    0    0  501 -0.0000000000e+00 -0.0000000000e+00 -3.6789196549e+02 3.6789196549e+02 0.0000000000e+00 0.0000e+00 1.0000e+00
  5000001  2    1    2    0    0 -2.8464383494e+01 -1.9750844050e+01 +4.4133038139e+02 1.0906293309e+03 9.9674445816e+02 0.0000e+00 0.0000e+00
  5000521  1    3    3    0    0 +4.1125542633e+02 -1.5332767618e+02 +4.5297197524e+02 6.3081218467e+02 1.0000000000e+01 0.0000e+00 -1.0000e+00
 -5000521  1    3    3    0    0 -4.3971980983e+02 +1.3357683213e+02 -1.1641593859e+01 4.5981714621e+02 1.0000000000e+01 0.0000e+00 1.0000e+00
       21  1    1    2  502  501 +2.8464383494e+01 +1.9750844050e+01 -3.6303037512e+01 5.0181943974e+01 0.0000000000e+00 0.0000e+00 1.0000e+00
<mgrwt>
<rscale>  1 0.99734640E+03</rscale>
<asrwt>0</asrwt>
<pdfrwt beam="1">  1        2 0.11891066E+00 0.99734640E+03</pdfrwt>
<pdfrwt beam="2">  1       -2 0.56598764E-01 0.99734640E+03</pdfrwt>
<totfact> 0.10540037E+02</totfact>
</mgrwt>
</event>
<event>
 6      1 +3.0741590e+01 9.98030100e+02 7.81860800e-03 9.31070800e-02
        2 -1    0    0  502    0 +0.0000000000e+00 +0.0000000000e+00 +6.2042124603e+02 6.2042124603e+02 0.0000000000e+00 0.0000e+00 -1.0000e+00
       -2 -1    0    0    0  501 -0.0000000000e+00 -0.0000000000e+00 -4.3796327631e+02 4.3796327631e+02 0.0000000000e+00 0.0000e+00 1.0000e+00
  5000001  2    1    2    0    0 -2.4610321632e+01 -2.1239946569e+01 +1.4454574281e+02 1.0084431546e+03 9.9750053688e+02 0.0000e+00 0.0000e+00
  5000521  1    3    3    0    0 +7.8975112876e+01 -1.7519179712e+02 +5.3904849217e+02 5.7236571450e+02 1.0000000000e+01 0.0000e+00 -1.0000e+00
 -5000521  1    3    3    0    0 -1.0358543451e+02 +1.5395185055e+02 -3.9450274936e+02 4.3607744012e+02 1.0000000000e+01 0.0000e+00 1.0000e+00
       21  1    1    2  502  501 +2.4610321632e+01 +2.1239946569e+01 +3.7912226901e+01 4.9941367720e+01 0.0000000000e+00 0.0000e+00 -1.0000e+00
<mgrwt>
<rscale>  1 0.99803012E+03</rscale>
<asrwt>0</asrwt>
<pdfrwt beam="1">  1        2 0.95449422E-01 0.99803012E+03</pdfrwt>
<pdfrwt beam="2">  1       -2 0.67378966E-01 0.99803012E+03</pdfrwt>
<totfact> 0.96065132E+01</totfact>
</mgrwt>
</event>
<event>
 6      1 +3.0741590e+01 1.00038700e+03 7.81860800e-03 9.30812100e-02
        1 -1    0    0  502    0 +0.0000000000e+00 +0.0000000000e+00 +6.5714868448e+02 6.5714868448e+02 0.0000000000e+00 0.0000e+00 1.0000e+00
       -1 -1    0    0    0  501 -0.0000000000e+00 -0.0000000000e+00 -4.0338412358e+02 4.0338412358e+02 0.0000000000e+00 0.0000e+00 -1.0000e+00
  5000001  2    1    2    0    0 +1.8766157450e+01 -1.2594477387e+01 +2.6556727613e+02 1.0350358747e+03 1.0001312385e+03 0.0000e+00 0.0000e+00
  5000521  1    3    3    0    0 -1.4663333478e+02 -3.9159799558e+02 +4.2071383650e+02 5.9325412534e+02 1.0000000000e+01 0.0000e+00 1.0000e+00
 -5000521  1    3    3    0    0 +1.6539949223e+02 +3.7900351820e+02 -1.5514656037e+02 4.4178174932e+02 1.0000000000e+01 0.0000e+00 -1.0000e+00
       21  1    1    2  502  501 -1.8766157450e+01 +1.2594477387e+01 -1.1802715223e+01 2.5496933399e+01 0.0000000000e+00 0.0000e+00 1.0000e+00
<mgrwt>
<rscale>  1 0.10003866E+04</rscale>
<asrwt>0</asrwt>
<pdfrwt beam="1">  1        1 0.10109980E+00 0.10003866E+04</pdfrwt>
<pdfrwt beam="2">  1       -1 0.62059096E-01 0.10003866E+04</pdfrwt>
<totfact> 0.79132320E+01</totfact>
</mgrwt>
</event>
<event>
 6      1 +3.0741590e+01 1.00056000e+03 7.81860800e-03 9.30793100e-02
        2 -1    0    0  502    0 +0.0000000000e+00 +0.0000000000e+00 +2.3118833736e+03 2.3118833736e+03 0.0000000000e+00 0.0000e+00 1.0000e+00
       -2 -1    0    0    0  501 -0.0000000000e+00 -0.0000000000e+00 -1.2673456917e+02 1.2673456917e+02 0.0000000000e+00 0.0000e+00 -1.0000e+00
  5000001  2    1    2    0    0 -2.2052701461e+01 +5.0041131913e+01 +1.8906323347e+03 2.1390676340e+03 9.9906420283e+02 0.0000e+00 0.0000e+00
  5000521  1    3    3    0    0 -7.4187041174e+01 +1.3329176003e+02 +1.9918270890e+03 1.9976850510e+03 1.0000000000e+01 0.0000e+00 1.0000e+00
 -5000521  1    3    3    0    0 +5.2134339713e+01 -8.3250628115e+01 -1.0119475437e+02 1.4138258299e+02 1.0000000000e+01 0.0000e+00 -1.0000e+00
       21  1    1    2  502  501 +2.2052701461e+01 -5.0041131913e+01 +2.9451646978e+02 2.9955030879e+02 0.0000000000e+00 0.0000e+00 -1.0000e+00
<mgrwt>
<rscale>  1 0.10005597E+04</rscale>
<asrwt>0</asrwt>
<pdfrwt beam="1">  1        2 0.35567433E+00 0.10005597E+04</pdfrwt>
<pdfrwt beam="2">  1       -2 0.19497628E-01 0.10005597E+04</pdfrwt>
<totfact> 0.10044349E+02</totfact>
</mgrwt>
</event>
<event>
 6      1 +3.0741590e+01 9.97781600e+02 7.81860800e-03 9.31098100e-02
        2 -1    0    0  502    0 +0.0000000000e+00 +0.0000000000e+00 +1.4794154736e+03 1.4794154736e+03 0.0000000000e+00 0.0000e+00 -1.0000e+00
       -2 -1    0    0    0  501 -0.0000000000e+00 -0.0000000000e+00 -1.7560133666e+02 1.7560133666e+02 0.0000000000e+00 0.0000e+00 1.0000e+00
  5000001  2    1    2    0    0 +1.2978110135e+01 -1.7258799782e+01 +1.2772980245e+03 1.6208202939e+03 9.9754793577e+02 0.0000e+00 0.0000e+00
  5000521  1    3    3    0    0 -2.1729436236e+02 +1.5033774663e+02 -4.4946700690e+01 2.6821350428e+02 1.0000000000e+01 0.0000e+00 1.0000e+00
 -5000521  1    3    3    0    0 +2.3027247250e+02 -1.6759654641e+02 +1.3222447252e+03 1.3526067896e+03 1.0000000000e+01 0.0000e+00 -1.0000e+00
       21  1    1    2  502  501 -1.2978110135e+01 +1.7258799782e+01 +2.6516112365e+01 3.4196516307e+01 0.0000000000e+00 0.0000e+00 -1.0000e+00
<mgrwt>
<rscale>  1 0.99778163E+03</rscale>
<asrwt>0</asrwt>
<pdfrwt beam="1">  1        2 0.22760237E+00 0.99778163E+03</pdfrwt>
<pdfrwt beam="2">  1       -2 0.27015591E-01 0.99778163E+03</pdfrwt>
<totfact> 0.16198813E+02</totfact>
</mgrwt>
</event>
<event>
 6      1 +3.0741590e+01 1.00976200e+03 7.81860800e-03 9.29790300e-02
       21 -1    0    0  501  502 +0.0000000000e+00 +0.0000000000e+00 +2.7191873799e+02 2.7191873799e+02 0.0000000000e+00 0.0000e+00 -1.0000e+00
        2 -1    0    0  502    0 -0.0000000000e+00 -0.0000000000e+00 -1.1715707706e+03 1.1715707706e+03 0.0000000000e+00 0.0000e+00 1.0000e+00
  5000001  2    1    2    0    0 -5.5016285634e+01 +7.7315965835e+01 -8.9363386025e+02 1.3484065519e+03 1.0052930929e+03 0.0000e+00 0.0000e+00
  5000521  1    3    3    0    0 +1.9690261697e+02 -2.2454306226e+02 +7.0604931777e+01 3.0704280446e+02 1.0000000000e+01 0.0000e+00 -1.0000e+00
 -5000521  1    3    3    0    0 -2.5191890261e+02 +3.0185902810e+02 -9.6423879203e+02 1.0413637474e+03 1.0000000000e+01 0.0000e+00 1.0000e+00
        2  1    1    2  501    0 +5.5016285634e+01 -7.7315965835e+01 -6.0181723338e+00 9.5082956707e+01 0.0000000000e+00 0.0000e+00 1.0000e+00
<mgrwt>
<rscale>  1 0.10097617E+04</rscale>
<asrwt>0</asrwt>
<pdfrwt beam="1">  1       21 0.41833652E-01 0.10097617E+04</pdfrwt>
<pdfrwt beam="2">  1        2 0.18024166E+00 0.10097617E+04</pdfrwt>
<totfact> 0.12142998E+03</totfact>
</mgrwt>
</event>
<event>
 6      1 +3.0741590e+01 1.00519400e+03 7.81860800e-03 9.30286600e-02
        1 -1    0    0  502    0 -0.0000000000e+00 +0.0000000000e+00 +1.3884640750e+03 1.3884640750e+03 0.0000000000e+00 0.0000e+00 -1.0000e+00
       21 -1    0    0  501  502 +0.0000000000e+00 -0.0000000000e+00 -6.0021389454e+02 6.0021389454e+02 0.0000000000e+00 0.0000e+00 -1.0000e+00
  5000001  2    1    2    0    0 +1.8758574408e+01 +1.7760497513e+01 +1.2060825381e+03 1.5700478244e+03 1.0048620615e+03 0.0000e+00 0.0000e+00
  5000521  1    3    3    0    0 -1.2632526222e+02 +2.4821089727e+02 +1.2615444574e+03 1.2919601927e+03 1.0000000000e+01 0.0000e+00 -1.0000e+00
 -5000521  1    3    3    0    0 +1.4508383663e+02 -2.3045039976e+02 -5.5461919294e+01 2.7808763168e+02 1.0000000000e+01 0.0000e+00 1.0000e+00
        1  1    1    2  501    0 -1.8758574408e+01 -1.7760497513e+01 -4.1783235764e+02 4.1863014521e+02 0.0000000000e+00 0.0000e+00 -1.0000e+00
<mgrwt>
<rscale>  1 0.10051941E+04</rscale>
<asrwt>0</asrwt>
<pdfrwt beam="1">  1       21 0.92340600E-01 0.10051941E+04</pdfrwt>
<pdfrwt beam="2">  1        1 0.21360986E+00 0.10051941E+04</pdfrwt>
<totfact> 0.71691039E+01</totfact>
</mgrwt>
</event>
<event>
 6      1 +3.0741590e+01 1.01226600e+03 7.81860800e-03 9.29519300e-02
        2 -1    0    0  502    0 +0.0000000000e+00 +0.0000000000e+00 +5.8364116885e+02 5.8364116885e+02 0.0000000000e+00 0.0000e+00 -1.0000e+00
       -2 -1    0    0    0  501 -0.0000000000e+00 -0.0000000000e+00 -4.7044295061e+02 4.7044295061e+02 0.0000000000e+00 0.0000e+00 1.0000e+00
  5000001  2    1    2    0    0 -1.2717708860e+00 -2.7532612710e+01 +8.6900962197e+01 1.0159893975e+03 1.0118908125e+03 0.0000e+00 0.0000e+00
  5000521  1    3    3    0    0 +4.5119701900e+02 -2.4122775300e+02 +4.8493217976e+01 5.1402448478e+02 1.0000000000e+01 0.0000e+00 -1.0000e+00
 -5000521  1    3    3    0    0 -4.5246878988e+02 +2.1369514029e+02 +3.8407744221e+01 5.0196491274e+02 1.0000000000e+01 0.0000e+00 1.0000e+00
       21  1    1    2  502  501 +1.2717708860e+00 +2.7532612710e+01 +2.6297256045e+01 3.8094721936e+01 0.0000000000e+00 0.0000e+00 -1.0000e+00
<mgrwt>
<rscale>  1 0.10122661E+04</rscale>
<asrwt>0</asrwt>
<pdfrwt beam="1">  1        2 0.89790949E-01 0.10122661E+04</pdfrwt>
<pdfrwt beam="2">  1       -2 0.72375839E-01 0.10122661E+04</pdfrwt>
<totfact> 0.88424652E+01</totfact>
</mgrwt>
</event>
<event>
 6      1 +3.0741590e+01 9.99194900e+02 7.81860800e-03 9.30942800e-02
        2 -1    0    0  502    0 -0.0000000000e+00 +0.0000000000e+00 +8.6876872352e+02 8.6876872352e+02 0.0000000000e+00 0.0000e+00 -1.0000e+00
       21 -1    0    0  501  502 +0.0000000000e+00 -0.0000000000e+00 -3.1087301087e+02 3.1087301087e+02 0.0000000000e+00 0.0000e+00 1.0000e+00
  5000001  2    1    2    0    0 -2.9301199715e+01 -2.6133690296e+01 +5.2682701320e+02 1.1295738389e+03 9.9842316960e+02 0.0000e+00 0.0000e+00
  5000521  1    3    3    0    0 +4.4009763025e+02 +1.1821154130e+02 +4.3461183332e+02 6.2979944293e+02 1.0000000000e+01 0.0000e+00 1.0000e+00
 -5000521  1    3    3    0    0 -4.6939882997e+02 -1.4434523160e+02 +9.2215179874e+01 4.9977439596e+02 1.0000000000e+01 0.0000e+00 -1.0000e+00
        2  1    1    2  501    0 +2.9301199715e+01 +2.6133690296e+01 +3.1068699452e+01 5.0067895491e+01 0.0000000000e+00 0.0000e+00 -1.0000e+00
<mgrwt>
<rscale>  1 0.99919485E+03</rscale>
<asrwt>0</asrwt>
<pdfrwt beam="1">  1       21 0.47826618E-01 0.99919485E+03</pdfrwt>
<pdfrwt beam="2">  1        2 0.13365673E+00 0.99919485E+03</pdfrwt>
<totfact> 0.14299533E+03</totfact>
</mgrwt>
</event>
<event>
 6      1 +3.0741590e+01 1.00310300e+03 7.81860800e-03 9.30514800e-02
       21 -1    0    0  501  502 +0.0000000000e+00 +0.0000000000e+00 +3.1313984210e+02 3.1313984210e+02 0.0000000000e+00 0.0000e+00 1.0000e+00
        1 -1    0    0  502    0 -0.0000000000e+00 -0.0000000000e+00 -9.2474138030e+02 9.2474138030e+02 0.0000000000e+00 0.0000e+00 -1.0000e+00
  5000001  2    1    2    0    0 +5.0856060557e+01 +9.1383364947e+00 -6.2824113400e+02 1.1835974842e+03 1.0017715478e+03 0.0000e+00 0.0000e+00
  5000521  1    3    3    0    0 +1.6572916209e+02 -2.5014062253e+02 -7.9822366490e+02 8.5281739277e+02 1.0000000000e+01 0.0000e+00 -1.0000e+00
 -5000521  1    3    3    0    0 -1.1487310154e+02 +2.5927895902e+02 +1.6998253090e+02 3.3078009139e+02 1.0000000000e+01 0.0000e+00 1.0000e+00
        1  1    1    2  501    0 -5.0856060557e+01 -9.1383364947e+00 +1.6639595798e+01 5.4283738242e+01 0.0000000000e+00 0.0000e+00 -1.0000e+00
<mgrwt>
<rscale>  1 0.10031032E+04</rscale>
<asrwt>0</asrwt>
<pdfrwt beam="1">  1       21 0.48175362E-01 0.10031032E+04</pdfrwt>
<pdfrwt beam="2">  1        1 0.14226790E+00 0.10031032E+04</pdfrwt>
<totfact> 0.69864000E+02</totfact>
</mgrwt>
</event>
<event>
 5      1 +3.0741590e+01 1.73133700e+02 7.81860800e-03 1.17461900e-01
        2 -1    0    0  502    0 -0.0000000000e+00 +0.0000000000e+00 +8.9260072558e+02 8.9260072558e+02 0.0000000000e+00 0.0000e+00 1.0000e+00
       21 -1    0    0  501  502 +0.0000000000e+00 -0.0000000000e+00 -2.4107411689e+01 2.4107411689e+01 0.0000000000e+00 0.0000e+00 -1.0000e+00
  5000521  1    1    2    0    0 +4.2695869113e+00 -5.6445133269e+00 +8.4682485797e+02 8.4691347254e+02 1.0000000000e+01 0.0000e+00 1.0000e+00
 -5000521  1    1    2    0    0 -1.2870449547e+01 +3.0225289706e+01 +2.6414451569e+01 4.3323663984e+01 1.0000000000e+01 0.0000e+00 -1.0000e+00
        2  1    1    2  501    0 +8.6008626356e+00 -2.4580776379e+01 -4.7459956474e+00 2.6471000740e+01 0.0000000000e+00 0.0000e+00 1.0000e+00
<mgrwt>
<rscale>  1 0.17313367E+03</rscale>
<asrwt>0</asrwt>
<pdfrwt beam="1">  1       21 0.37088333E-02 0.17313367E+03</pdfrwt>
<pdfrwt beam="2">  1        2 0.13732316E+00 0.17313367E+03</pdfrwt>
<totfact> 0.17299922E+05</totfact>
</mgrwt>
</event>
<event>
 6      1 +3.0741590e+01 9.94085700e+02 7.81860800e-03 9.31505500e-02
       -2 -1    0    0    0  501 -0.0000000000e+00 +0.0000000000e+00 +2.3595110099e+02 2.3595110099e+02 0.0000000000e+00 0.0000e+00 -1.0000e+00
        2 -1    0    0  502    0 +0.0000000000e+00 -0.0000000000e+00 -1.3088777016e+03 1.3088777016e+03 0.0000000000e+00 0.0000e+00 1.0000e+00
  5000001  2    1    2    0    0 +3.5474003143e+00 -5.9485272521e+01 -8.3100440265e+02 1.2956753728e+03 9.9229797583e+02 0.0000e+00 0.0000e+00
  5000521  1    3    3    0    0 -1.2945924435e+02 -4.4663116466e+02 -1.2850715021e+02 4.8254863055e+02 1.0000000000e+01 0.0000e+00 1.0000e+00
 -5000521  1    3    3    0    0 +1.3300664466e+02 +3.8714589214e+02 -7.0249725243e+02 8.1312674227e+02 1.0000000000e+01 0.0000e+00 -1.0000e+00
       21  1    1    2  502  501 -3.5474003143e+00 +5.9485272521e+01 -2.4192219795e+02 2.4915342975e+02 0.0000000000e+00 0.0000e+00 -1.0000e+00
<mgrwt>
<rscale>  1 0.99408569E+03</rscale>
<asrwt>0</asrwt>
<pdfrwt beam="1">  1        2 0.20136580E+00 0.99408569E+03</pdfrwt>
<pdfrwt beam="2">  1       -2 0.36300169E-01 0.99408569E+03</pdfrwt>
<totfact> 0.11644157E+02</totfact>
</mgrwt>
</event>
<event>
 6      1 +3.0741590e+01 1.00057200e+03 7.81860800e-03 9.30791700e-02
       -2 -1    0    0    0  501 -0.0000000000e+00 +0.0000000000e+00 +1.1501609590e+02 1.1501609590e+02 0.0000000000e+00 0.0000e+00 -1.0000e+00
        2 -1    0    0  502    0 +0.0000000000e+00 -0.0000000000e+00 -2.6342306404e+03 2.6342306404e+03 0.0000000000e+00 0.0000e+00 1.0000e+00
  5000001  2    1    2    0    0 -8.4967985302e+00 -3.3614372522e+01 -2.0746014251e+03 2.3032837921e+03 9.9997151580e+02 0.0000e+00 0.0000e+00
  5000521  1    3    3    0    0 +4.0263440074e+02 -1.6035385967e+02 -1.6212549139e+03 1.6782119404e+03 1.0000000000e+01 0.0000e+00 -1.0000e+00
 -5000521  1    3    3    0    0 -4.1113119927e+02 +1.2673948715e+02 -4.5334651116e+02 6.2507185171e+02 1.0000000000e+01 0.0000e+00 1.0000e+00
       21  1    1    2  502  501 +8.4967985302e+00 +3.3614372522e+01 -4.4461311946e+02 4.4596294422e+02 0.0000000000e+00 0.0000e+00 -1.0000e+00
<mgrwt>
<rscale>  1 0.10005724E+04</rscale>
<asrwt>0</asrwt>
<pdfrwt beam="1">  1        2 0.40526621E+00 0.10005724E+04</pdfrwt>
<pdfrwt beam="2">  1       -2 0.17694786E-01 0.10005724E+04</pdfrwt>
<totfact> 0.77877593E+01</totfact>
</mgrwt>
</event>
<event>
 6      1 +3.0741590e+01 9.99409900e+02 7.81860800e-03 9.30919200e-02
       -1 -1    0    0    0  501 -0.0000000000e+00 +0.0000000000e+00 +4.4016976392e+02 4.4016976392e+02 0.0000000000e+00 0.0000e+00 -1.0000e+00
        1 -1    0    0  502    0 +0.0000000000e+00 -0.0000000000e+00 -6.7101353531e+02 6.7101353531e+02 0.0000000000e+00 0.0000e+00 1.0000e+00
  5000001  2    1    2    0    0 +4.6723242591e+01 -5.9277501026e+00 -2.8515542777e+02 1.0392948048e+03 9.9829949092e+02 0.0000e+00 0.0000e+00
  5000521  1    3    3    0    0 +1.2181191274e+02 +4.7014680823e+02 -2.7267273153e+02 5.5706963828e+02 1.0000000000e+01 0.0000e+00 1.0000e+00
 -5000521  1    3    3    0    0 -7.5088670147e+01 -4.7607455833e+02 -1.2482696239e+01 4.8222516647e+02 1.0000000000e+01 0.0000e+00 -1.0000e+00
       21  1    1    2  502  501 -4.6723242591e+01 +5.9277501026e+00 +5.4311656376e+01 7.1888494474e+01 0.0000000000e+00 0.0000e+00 1.0000e+00
<mgrwt>
<rscale>  1 0.99940986E+03</rscale>
<asrwt>0</asrwt>
<pdfrwt beam="1">  1        1 0.10323285E+00 0.99940986E+03</pdfrwt>
<pdfrwt beam="2">  1       -1 0.67718426E-01 0.99940986E+03</pdfrwt>
<totfact> 0.64314740E+01</totfact>
</mgrwt>
</event>
<event>
 6      1 +3.0741590e+01 1.00241400e+03 7.81860800e-03 9.30590100e-02
        2 -1    0    0  502    0 +0.0000000000e+00 +0.0000000000e+00 +2.4223920436e+03 2.4223920436e+03 0.0000000000e+00 0.0000e+00 1.0000e+00
       -2 -1    0    0    0  501 -0.0000000000e+00 -0.0000000000e+00 -1.1601589727e+02 1.1601589727e+02 0.0000000000e+00 0.0000e+00 -1.0000e+00
  5000001  2    1    2    0    0 +4.1077615429e+00 -3.6447218020e+01 +2.0784601811e+03 2.3075595911e+03 1.0017431150e+03 0.0000e+00 0.0000e+00
  5000521  1    3    3    0    0 -1.9506164809e+02 -6.1349473155e+01 -1.4250210351e+01 2.0522152155e+02 1.0000000000e+01 0.0000e+00 -1.0000e+00
 -5000521  1    3    3    0    0 +1.9916940963e+02 +2.4902255135e+01 +2.0927103915e+03 2.1023380696e+03 1.0000000000e+01 0.0000e+00 1.0000e+00
       21  1    1    2  502  501 -4.1077615429e+00 +3.6447218020e+01 +2.2791596515e+02 2.3084834974e+02 0.0000000000e+00 0.0000e+00 -1.0000e+00
<mgrwt>
<rscale>  1 0.10024144E+04</rscale>
<asrwt>0</asrwt>
<pdfrwt beam="1">  1        2 0.37267566E+00 0.10024144E+04</pdfrwt>
<pdfrwt beam="2">  1       -2 0.17848601E-01 0.10024144E+04</pdfrwt>
<totfact> 0.10149111E+02</totfact>
</mgrwt>
</event>
<event>
 6      1 +3.0741590e+01 1.00940900e+03 7.81860800e-03 9.29828500e-02
        2 -1    0    0  502    0 +0.0000000000e+00 +0.0000000000e+00 +2.8780144127e+03 2.8780144127e+03 0.0000000000e+00 0.0000e+00 1.0000e+00
       -2 -1    0    0    0  501 -0.0000000000e+00 -0.0000000000e+00 -1.3248501769e+02 1.3248501769e+02 0.0000000000e+00 0.0000e+00 -1.0000e+00
  5000001  2    1    2    0    0 -6.5886500235e+01 -8.0692333639e+01 +1.8373808409e+03 2.0963954538e+03 1.0040185559e+03 0.0000e+00 0.0000e+00
  5000521  1    3    3    0    0 +6.9323494818e+01 +1.5878706759e+02 -5.6585606604e+01 1.8254043564e+02 1.0000000000e+01 0.0000e+00 -1.0000e+00
 -5000521  1    3    3    0    0 -1.3520999505e+02 -2.3947940123e+02 +1.8939664475e+03 1.9138550181e+03 1.0000000000e+01 0.0000e+00 1.0000e+00
       21  1    1    2  502  501 +6.5886500235e+01 +8.0692333639e+01 +9.0814855416e+02 9.1410397661e+02 0.0000000000e+00 0.0000e+00 -1.0000e+00
<mgrwt>
<rscale>  1 0.10094085E+04</rscale>
<asrwt>0</asrwt>
<pdfrwt beam="1">  1        2 0.44277140E+00 0.10094085E+04</pdfrwt>
<pdfrwt beam="2">  1       -2 0.20382313E-01 0.10094085E+04</pdfrwt>
<totfact> 0.43585381E+01</totfact>
</mgrwt>
</event>
<event>
 6      1 +3.0741590e+01 9.94869300e+02 7.81860800e-03 9.31419000e-02
       -2 -1    0    0    0  501 -0.0000000000e+00 +0.0000000000e+00 +1.2738560898e+02 1.2738560898e+02 0.0000000000e+00 0.0000e+00 1.0000e+00
        2 -1    0    0  502    0 +0.0000000000e+00 -0.0000000000e+00 -2.1304159432e+03 2.1304159432e+03 0.0000000000e+00 0.0000e+00 -1.0000e+00
  5000001  2    1    2    0    0 -4.0875236103e+01 +2.1503710115e+01 -1.9313883103e+03 2.1725620421e+03 9.9379667307e+02 0.0000e+00 0.0000e+00
  5000521  1    3    3    0    0 -3.2223143021e+01 +3.0348722007e+02 -1.0262747770e+02 3.2214161928e+02 1.0000000000e+01 0.0000e+00 1.0000e+00
 -5000521  1    3    3    0    0 -8.6520930821e+00 -2.8198350995e+02 -1.8287608326e+03 1.8504204229e+03 1.0000000000e+01 0.0000e+00 -1.0000e+00
       21  1    1    2  502  501 +4.0875236103e+01 -2.1503710115e+01 -7.1642023899e+01 8.5239509991e+01 0.0000000000e+00 0.0000e+00 -1.0000e+00
<mgrwt>
<rscale>  1 0.99486935E+03</rscale>
<asrwt>0</asrwt>
<pdfrwt beam="1">  1        2 0.32775629E+00 0.99486935E+03</pdfrwt>
<pdfrwt beam="2">  1       -2 0.19597787E-01 0.99486935E+03</pdfrwt>
<totfact> 0.12569546E+02</totfact>
</mgrwt>
</event>
<event>
 5      1 +3.0741590e+01 2.02930600e+02 7.81860800e-03 1.14729000e-01
        2 -1    0    0  502    0 +0.0000000000e+00 +0.0000000000e+00 +4.5224695000e+02 4.5224695000e+02 0.0000000000e+00 0.0000e+00 -1.0000e+00
       -2 -1    0    0    0  501 -0.0000000000e+00 -0.0000000000e+00 -3.5484013934e+01 3.5484013934e+01 0.0000000000e+00 0.0000e+00 1.0000e+00
  5000521  1    1    2    0    0 -4.2069484214e+01 +5.8086786413e+01 +2.6346028523e+02 2.7323110759e+02 1.0000000000e+01 0.0000e+00 -1.0000e+00
 -5000521  1    1    2    0    0 +7.7127814975e+01 -2.7027385843e+01 +3.9266703210e+01 9.1219808208e+01 1.0000000000e+01 0.0000e+00 1.0000e+00
       21  1    1    2  502  501 -3.5058330761e+01 -3.1059400569e+01 +1.1403594762e+02 1.2328004814e+02 0.0000000000e+00 0.0000e+00 -1.0000e+00
<mgrwt>
<rscale>  1 0.20293063E+03</rscale>
<asrwt>0</asrwt>
<pdfrwt beam="1">  1        2 0.69576450E-01 0.20293063E+03</pdfrwt>
<pdfrwt beam="2">  1       -2 0.54590794E-02 0.20293063E+03</pdfrwt>
<totfact> 0.11632652E+04</totfact>
</mgrwt>
</event>
<event>
 6      1 +3.0741590e+01 1.01823000e+03 7.81860800e-03 9.28877300e-02
       -2 -1    0    0    0  501 -0.0000000000e+00 +0.0000000000e+00 +3.5156710224e+02 3.5156710224e+02 0.0000000000e+00 0.0000e+00 -1.0000e+00
        2 -1    0    0  502    0 +0.0000000000e+00 -0.0000000000e+00 -1.2012275714e+03 1.2012275714e+03 0.0000000000e+00 0.0000e+00 1.0000e+00
  5000001  2    1    2    0    0 -2.6226665011e+01 -2.5823894513e+01 -3.8796969007e+02 1.0896390983e+03 1.0175648248e+03 0.0000e+00 0.0000e+00
  5000521  1    3    3    0    0 +8.2710329021e+01 +3.7982274625e+02 +1.4143880859e+02 4.1377681625e+02 1.0000000000e+01 0.0000e+00 -1.0000e+00
 -5000521  1    3    3    0    0 -1.0893699403e+02 -4.0564664076e+02 -5.2940849867e+02 6.7586228204e+02 1.0000000000e+01 0.0000e+00 1.0000e+00
       21  1    1    2  502  501 +2.6226665011e+01 +2.5823894513e+01 -4.6169077913e+02 4.6315557540e+02 0.0000000000e+00 0.0000e+00 1.0000e+00
<mgrwt>
<rscale>  1 0.10182303E+04</rscale>
<asrwt>0</asrwt>
<pdfrwt beam="1">  1        2 0.18480424E+00 0.10182303E+04</pdfrwt>
<pdfrwt beam="2">  1       -2 0.54087247E-01 0.10182303E+04</pdfrwt>
<totfact> 0.60643207E+01</totfact>
</mgrwt>
</event>
<event>
 6      1 +3.0741590e+01 1.00175900e+03 7.81860800e-03 9.30661700e-02
       21 -1    0    0  501  502 +0.0000000000e+00 +0.0000000000e+00 +4.8656391635e+02 4.8656391635e+02 0.0000000000e+00 0.0000e+00 -1.0000e+00
       -1 -1    0    0    0  501 -0.0000000000e+00 -0.0000000000e+00 -7.2540111940e+02 7.2540111940e+02 0.0000000000e+00 0.0000e+00 1.0000e+00
  5000001  2    1    2    0    0 -8.4298235743e+01 +2.3446106402e+01 -3.5828094073e+02 1.0639018096e+03 9.9793081704e+02 0.0000e+00 0.0000e+00
  5000521  1    3    3    0    0 -2.3446771791e+02 +4.3638388222e+02 +2.1675169479e+00 4.9549036472e+02 1.0000000000e+01 0.0000e+00 1.0000e+00
 -5000521  1    3    3    0    0 +1.5016948217e+02 -4.1293777581e+02 -3.6044845768e+02 5.6841144492e+02 1.0000000000e+01 0.0000e+00 -1.0000e+00
       -1  1    1    2    0  502 +8.4298235743e+01 -2.3446106402e+01 +1.1944373769e+02 1.4806322611e+02 0.0000000000e+00 0.0000e+00 1.0000e+00
<mgrwt>
<rscale>  1 0.10017594E+04</rscale>
<asrwt>0</asrwt>
<pdfrwt beam="1">  1       21 0.74855987E-01 0.10017594E+04</pdfrwt>
<pdfrwt beam="2">  1       -1 0.11160017E+00 0.10017594E+04</pdfrwt>
<totfact> 0.95167336E+01</totfact>
</mgrwt>
</event>
<event>
 6      1 +3.0741590e+01 9.84837100e+02 7.81860800e-03 9.32533300e-02
       -2 -1    0    0    0  501 -0.0000000000e+00 +0.0000000000e+00 +4.8741730172e+02 4.8741730172e+02 0.0000000000e+00 0.0000e+00 1.0000e+00
        2 -1    0    0  502    0 +0.0000000000e+00 -0.0000000000e+00 -7.0725740648e+02 7.0725740648e+02 0.0000000000e+00 0.0000e+00 -1.0000e+00
  5000001  2    1    2    0    0 +1.2330324959e+02 -1.1051005913e+02 -2.7087559042e+02 1.0214096358e+03 9.7081815704e+02 0.0000e+00 0.0000e+00
  5000521  1    3    3    0    0 -2.7041909116e+02 -3.2425129525e+02 +1.0651096803e+02 4.3555708425e+02 1.0000000000e+01 0.0000e+00 1.0000e+00
 -5000521  1    3    3    0    0 +3.9372234075e+02 +2.1374123612e+02 -3.7738655844e+02 5.8585255152e+02 1.0000000000e+01 0.0000e+00 -1.0000e+00
       21  1    1    2  502  501 -1.2330324959e+02 +1.1051005913e+02 +5.1035485649e+01 1.7326507243e+02 0.0000000000e+00 0.0000e+00 1.0000e+00
<mgrwt>
<rscale>  1 0.98483707E+03</rscale>
<asrwt>0</asrwt>
<pdfrwt beam="1">  1        2 0.10880883E+00 0.98483707E+03</pdfrwt>
<pdfrwt beam="2">  1       -2 0.74987277E-01 0.98483707E+03</pdfrwt>
<totfact> 0.64481107E+01</totfact>
</mgrwt>
</event>
<event>
 6      1 +3.0741590e+01 1.00248300e+03 7.81860800e-03 9.30582500e-02
       -2 -1    0    0    0  501 -0.0000000000e+00 +0.0000000000e+00 +5.9560548289e+02 5.9560548289e+02 0.0000000000e+00 0.0000e+00 1.0000e+00
        2 -1    0    0  502    0 +0.0000000000e+00 -0.0000000000e+00 -4.9393585765e+02 4.9393585765e+02 0.0000000000e+00 0.0000e+00 -1.0000e+00
  5000001  2    1    2    0    0 -7.7100776635e+01 -3.5041535238e+00 +1.2159369256e+02 1.0098307559e+03 9.9950803928e+02 0.0000e+00 0.0000e+00
  5000521  1    3    3    0    0 -1.5885232797e+02 -3.2794341452e+00 -4.2667629085e+02 4.5540912810e+02 1.0000000000e+01 0.0000e+00 -1.0000e+00
 -5000521  1    3    3    0    0 +8.1751551331e+01 -2.2471937865e-01 +5.4826998340e+02 5.5442162777e+02 1.0000000000e+01 0.0000e+00 1.0000e+00
       21  1    1    2  502  501 +7.7100776635e+01 +3.5041535238e+00 -1.9924067306e+01 7.9710584666e+01 0.0000000000e+00 0.0000e+00 -1.0000e+00
<mgrwt>
<rscale>  1 0.10024835E+04</rscale>
<asrwt>0</asrwt>
<pdfrwt beam="1">  1        2 0.75990132E-01 0.10024835E+04</pdfrwt>
<pdfrwt beam="2">  1       -2 0.91631613E-01 0.10024835E+04</pdfrwt>
<totfact> 0.63187027E+01</totfact>
</mgrwt>
</event>
<event>
 6      1 +3.0741590e+01 9.96117000e+02 7.81860800e-03 9.31281400e-02
       21 -1    0    0  501  502 +0.0000000000e+00 +0.0000000000e+00 +1.3791007187e+03 1.3791007187e+03 0.0000000000e+00 0.0000e+00 -1.0000e+00
        1 -1    0    0  502    0 -0.0000000000e+00 -0.0000000000e+00 -1.9114022995e+02 1.9114022995e+02 0.0000000000e+00 0.0000e+00 1.0000e+00
  5000001  2    1    2    0    0 +1.3584557396e+01 +2.5876527153e+01 +1.1667489557e+03 1.5341291225e+03 9.9568815592e+02 0.0000e+00 0.0000e+00
  5000521  1    3    3    0    0 +1.1768553780e+02 -3.4315154643e+02 +1.0821066655e+03 1.1413403109e+03 1.0000000000e+01 0.0000e+00 1.0000e+00
 -5000521  1    3    3    0    0 -1.0410098041e+02 +3.6902807358e+02 +8.4642290173e+01 3.9278881157e+02 1.0000000000e+01 0.0000e+00 -1.0000e+00
        1  1    1    2  501    0 -1.3584557396e+01 -2.5876527153e+01 +2.1211533019e+01 3.6111826182e+01 0.0000000000e+00 0.0000e+00 1.0000e+00
<mgrwt>
<rscale>  1 0.99611698E+03</rscale>
<asrwt>0</asrwt>
<pdfrwt beam="1">  1       21 0.21216933E+00 0.99611698E+03</pdfrwt>
<pdfrwt beam="2">  1        1 0.29406190E-01 0.99611698E+03</pdfrwt>
<totfact> 0.14502148E+02</totfact>
</mgrwt>
</event>
<event>
 6      1 +3.0741590e+01 1.01409400e+03 7.81860800e-03 9.29322000e-02
       -1 -1    0    0    0  501 -0.0000000000e+00 +0.0000000000e+00 +6.0941671817e+02 6.0941671817e+02 0.0000000000e+00 0.0000e+00 1.0000e+00
        1 -1    0    0  502    0 +0.0000000000e+00 -0.0000000000e+00 -4.6401045891e+02 4.6401045891e+02 0.0000000000e+00 0.0000e+00 -1.0000e+00
  5000001  2    1    2    0    0 -1.3911837250e+01 -3.1129918079e+01 +1.0344154467e+02 1.0193564060e+03 1.0135209511e+03 0.0000e+00 0.0000e+00
  5000521  1    3    3    0    0 +1.3965906320e+02 +1.4975237882e+02 +5.0935818082e+02 5.4906847047e+02 1.0000000000e+01 0.0000e+00 1.0000e+00
 -5000521  1    3    3    0    0 -1.5357090045e+02 -1.8088229690e+02 -4.0591663615e+02 4.7028793553e+02 1.0000000000e+01 0.0000e+00 -1.0000e+00
       21  1    1    2  502  501 +1.3911837250e+01 +3.1129918079e+01 +4.1964714589e+01 5.4070771085e+01 0.0000000000e+00 0.0000e+00 1.0000e+00
<mgrwt>
<rscale>  1 0.10140943E+04</rscale>
<asrwt>0</asrwt>
<pdfrwt beam="1">  1        1 0.71386224E-01 0.10140943E+04</pdfrwt>
<pdfrwt beam="2">  1       -1 0.93756419E-01 0.10140943E+04</pdfrwt>
<totfact> 0.54288924E+01</totfact>
</mgrwt>
</event>
<event>
 6      1 +3.0741590e+01 1.01385000e+03 7.81860800e-03 9.29348300e-02
       -2 -1    0    0    0  501 -0.0000000000e+00 +0.0000000000e+00 +3.8585160788e+02 3.8585160788e+02 0.0000000000e+00 0.0000e+00 -1.0000e+00
        2 -1    0    0  502    0 +0.0000000000e+00 -0.0000000000e+00 -9.7981081028e+02 9.7981081028e+02 0.0000000000e+00 0.0000e+00 1.0000e+00
  5000001  2    1    2    0    0 -1.3506198360e+02 -2.8147920613e+01 -6.6299977306e+02 1.2113878407e+03 1.0044191141e+03 0.0000e+00 0.0000e+00
  5000521  1    3    3    0    0 -1.5027467290e+02 +4.7198813727e+02 -4.4334705165e+02 6.6483974554e+02 1.0000000000e+01 0.0000e+00 1.0000e+00
 -5000521  1    3    3    0    0 +1.5212689303e+01 -5.0013605789e+02 -2.1965272141e+02 5.4654809517e+02 1.0000000000e+01 0.0000e+00 -1.0000e+00
       21  1    1    2  502  501 +1.3506198360e+02 +2.8147920613e+01 +6.9040570663e+01 1.5427457745e+02 0.0000000000e+00 0.0000e+00 1.0000e+00
<mgrwt>
<rscale>  1 0.10138500E+04</rscale>
<asrwt>0</asrwt>
<pdfrwt beam="1">  1        2 0.15074012E+00 0.10138500E+04</pdfrwt>
<pdfrwt beam="2">  1       -2 0.59361786E-01 0.10138500E+04</pdfrwt>
<totfact> 0.68518503E+01</totfact>
</mgrwt>
</event>
<event>
 6      1 +3.0741590e+01 1.05333200e+03 7.81860800e-03 9.25191100e-02
       -1 -1    0    0    0  501 -0.0000000000e+00 +0.0000000000e+00 +3.0469748214e+02 3.0469748214e+02 0.0000000000e+00 0.0000e+00 1.0000e+00
        1 -1    0    0  502    0 +0.0000000000e+00 -0.0000000000e+00 -1.0678803955e+03 1.0678803955e+03 0.0000000000e+00 0.0000e+00 -1.0000e+00
  5000001  2    1    2    0    0 -2.0071154359e+01 -7.6146421800e+00 -8.0490141307e+02 1.3256602133e+03 1.0531134233e+03 0.0000e+00 0.0000e+00
  5000521  1    3    3    0    0 +2.9326601520e+02 -4.1306499642e+00 +1.4357960832e+02 3.2670647662e+02 1.0000000000e+01 0.0000e+00 1.0000e+00
 -5000521  1    3    3    0    0 -3.1333716956e+02 -3.4839922158e+00 -9.4848102139e+02 9.9895373665e+02 1.0000000000e+01 0.0000e+00 -1.0000e+00
       21  1    1    2  502  501 +2.0071154359e+01 +7.6146421800e+00 +4.1718499700e+01 4.6917664371e+01 0.0000000000e+00 0.0000e+00 -1.0000e+00
<mgrwt>
<rscale>  1 0.10533322E+04</rscale>
<asrwt>0</asrwt>
<pdfrwt beam="1">  1        1 0.16428929E+00 0.10533322E+04</pdfrwt>
<pdfrwt beam="2">  1       -1 0.46876536E-01 0.10533322E+04</pdfrwt>
<totfact> 0.60759324E+01</totfact>
</mgrwt>
</event>
<event>
 6      1 +3.0741590e+01 9.73450500e+02 7.81860800e-03 9.33815300e-02
       -2 -1    0    0    0  501 -0.0000000000e+00 +0.0000000000e+00 +2.2259043440e+02 2.2259043440e+02 0.0000000000e+00 0.0000e+00 -1.0000e+00
        2 -1    0    0  502    0 +0.0000000000e+00 -0.0000000000e+00 -1.1112522477e+03 1.1112522477e+03 0.0000000000e+00 0.0000e+00 1.0000e+00
  5000001  2    1    2    0    0 -1.3701632002e+01 -1.6164912183e+01 -8.7167588767e+02 1.3066846119e+03 9.7321980190e+02 0.0000e+00 0.0000e+00
  5000521  1    3    3    0    0 -3.4569036703e+02 +1.1547486396e+02 -8.7657190742e+02 9.4937589128e+02 1.0000000000e+01 0.0000e+00 1.0000e+00
 -5000521  1    3    3    0    0 +3.3198873503e+02 -1.3163977614e+02 +4.8960197534e+00 3.5730872065e+02 1.0000000000e+01 0.0000e+00 -1.0000e+00
       21  1    1    2  502  501 +1.3701632002e+01 +1.6164912183e+01 -1.6985925605e+01 2.7158070147e+01 0.0000000000e+00 0.0000e+00 -1.0000e+00
<mgrwt>
<rscale>  1 0.97345047E+03</rscale>
<asrwt>0</asrwt>
<pdfrwt beam="1">  1        2 0.17096189E+00 0.97345047E+03</pdfrwt>
<pdfrwt beam="2">  1       -2 0.34244682E-01 0.97345047E+03</pdfrwt>
<totfact> 0.17097696E+02</totfact>
</mgrwt>
</event>
<event>
 6      1 +3.0741590e+01 1.00668700e+03 7.81860800e-03 9.30124100e-02
       -1 -1    0    0    0  501 -0.0000000000e+00 +0.0000000000e+00 +3.8612276490e+02 3.8612276490e+02 0.0000000000e+00 0.0000e+00 -1.0000e+00
        1 -1    0    0  502    0 +0.0000000000e+00 -0.0000000000e+00 -1.8591089274e+03 1.8591089274e+03 0.0000000000e+00 0.0000e+00 1.0000e+00
  5000001  2    1    2    0    0 +4.6586329086e+01 +8.3790504829e+01 -2.7521440599e+02 1.0436292974e+03 1.0021117734e+03 0.0000e+00 0.0000e+00
  5000521  1    3    3    0    0 +1.8570763782e+02 +3.3786971535e+01 -6.3074439903e+02 6.5845833816e+02 1.0000000000e+01 0.0000e+00 1.0000e+00
 -5000521  1    3    3    0    0 -1.3912130873e+02 +5.0003533294e+01 +3.5552999303e+02 3.8517095923e+02 1.0000000000e+01 0.0000e+00 -1.0000e+00
       21  1    1    2  502  501 -4.6586329086e+01 -8.3790504829e+01 -1.1977717565e+03 1.2016023949e+03 0.0000000000e+00 0.0000e+00 1.0000e+00
<mgrwt>
<rscale>  1 0.10066872E+04</rscale>
<asrwt>0</asrwt>
<pdfrwt beam="1">  1        1 0.28601676E+00 0.10066872E+04</pdfrwt>
<pdfrwt beam="2">  1       -1 0.59403503E-01 0.10066872E+04</pdfrwt>
<totfact> 0.10763466E+01</totfact>
</mgrwt>
</event>
<event>
 6      1 +3.0741590e+01 9.68470700e+02 7.81860800e-03 9.34381800e-02
        2 -1    0    0  502    0 +0.0000000000e+00 +0.0000000000e+00 +1.1074954225e+03 1.1074954225e+03 0.0000000000e+00 0.0000e+00 -1.0000e+00
       -2 -1    0    0    0  501 -0.0000000000e+00 -0.0000000000e+00 -2.4160684378e+02 2.4160684378e+02 0.0000000000e+00 0.0000e+00 1.0000e+00
  5000001  2    1    2    0    0 -3.4551768333e+01 -1.1669608652e+01 +8.8136908634e+02 1.3094834504e+03 9.6778377542e+02 0.0000e+00 0.0000e+00
  5000521  1    3    3    0    0 +1.8418124207e+02 -7.3396260298e+01 +1.0226151234e+03 1.0417060197e+03 1.0000000000e+01 0.0000e+00 -1.0000e+00
 -5000521  1    3    3    0    0 -2.1873301040e+02 +6.1726651646e+01 -1.4124603706e+02 2.6777743062e+02 1.0000000000e+01 0.0000e+00 1.0000e+00
       21  1    1    2  502  501 +3.4551768333e+01 +1.1669608652e+01 -1.5480507596e+01 3.9618815940e+01 0.0000000000e+00 0.0000e+00 1.0000e+00
<mgrwt>
<rscale>  1 0.96847067E+03</rscale>
<asrwt>0</asrwt>
<pdfrwt beam="1">  1        2 0.17038391E+00 0.96847067E+03</pdfrwt>
<pdfrwt beam="2">  1       -2 0.37170284E-01 0.96847067E+03</pdfrwt>
<totfact> 0.14691310E+02</totfact>
</mgrwt>
</event>
<event>
 6      1 +3.0741590e+01 1.02873100e+03 7.81860800e-03 9.27758300e-02
        2 -1    0    0  502    0 -0.0000000000e+00 +0.0000000000e+00 +3.4244620279e+03 3.4244620279e+03 0.0000000000e+00 0.0000e+00 1.0000e+00
       21 -1    0    0  501  502 +0.0000000000e+00 -0.0000000000e+00 -1.0642572366e+02 1.0642572366e+02 0.0000000000e+00 0.0000e+00 -1.0000e+00
  5000001  2    1    2    0    0 -9.3659909184e+00 -2.1464503291e+01 +3.3423778014e+03 3.4971097237e+03 1.0284641975e+03 0.0000e+00 0.0000e+00
  5000521  1    3    3    0    0 +1.6231002849e+01 +1.0914419867e+02 -3.5692433113e+01 1.1640382871e+02 1.0000000000e+01 0.0000e+00 -1.0000e+00
 -5000521  1    3    3    0    0 -2.5596993767e+01 -1.3060870196e+02 +3.3780702345e+03 3.3807058950e+03 1.0000000000e+01 0.0000e+00 1.0000e+00
        2  1    1    2  501    0 +9.3659909184e+00 +2.1464503291e+01 -2.4341497120e+01 3.3778027909e+01 0.0000000000e+00 0.0000e+00 1.0000e+00
<mgrwt>
<rscale>  1 0.10287308E+04</rscale>
<asrwt>0</asrwt>
<pdfrwt beam="1">  1       21 0.16373191E-01 0.10287308E+04</pdfrwt>
<pdfrwt beam="2">  1        2 0.52684023E+00 0.10287308E+04</pdfrwt>
<totfact> 0.37849021E+02</totfact>
</mgrwt>
</event>
<event>
 6      1 +3.0741590e+01 1.00655500e+03 7.81860800e-03 9.30138500e-02
        2 -1    0    0  502    0 +0.0000000000e+00 +0.0000000000e+00 +2.7491349091e+02 2.7491349091e+02 0.0000000000e+00 0.0000e+00 -1.0000e+00
       -2 -1    0    0    0  501 -0.0000000000e+00 -0.0000000000e+00 -1.1683513815e+03 1.1683513815e+03 0.0000000000e+00 0.0000e+00 1.0000e+00
  5000001  2    1    2    0    0 -3.3245816354e+01 -2.1941416566e+01 -6.5360502614e+02 1.2001465618e+03 1.0057661406e+03 0.0000e+00 0.0000e+00
  5000521  1    3    3    0    0 -5.1606592471e+01 -2.1003226035e+02 -8.7932507770e+02 9.0558786600e+02 1.0000000000e+01 0.0000e+00 1.0000e+00
 -5000521  1    3    3    0    0 +1.8360776117e+01 +1.8809084379e+02 +2.2572005156e+02 2.9455869584e+02 1.0000000000e+01 0.0000e+00 -1.0000e+00
       21  1    1    2  502  501 +3.3245816354e+01 +2.1941416566e+01 -2.3983286445e+02 2.4311831058e+02 0.0000000000e+00 0.0000e+00 1.0000e+00
<mgrwt>
<rscale>  1 0.10065546E+04</rscale>
<asrwt>0</asrwt>
<pdfrwt beam="1">  1        2 0.42294384E-01 0.10065546E+04</pdfrwt>
<pdfrwt beam="2">  1       -2 0.17974636E+00 0.10065546E+04</pdfrwt>
<totfact> 0.21966574E+01</totfact>
</mgrwt>
</event>
<event>
 6      1 +3.0741590e+01 9.87104900e+02 7.81860800e-03 9.32280200e-02
        2 -1    0    0  502    0 +0.0000000000e+00 +0.0000000000e+00 +4.3436541688e+02 4.3436541688e+02 0.0000000000e+00 0.0000e+00 1.0000e+00
       -2 -1    0    0    0  501 -0.0000000000e+00 -0.0000000000e+00 -5.9823418366e+02 5.9823418366e+02 0.0000000000e+00 0.0000e+00 -1.0000e+00
  5000001  2    1    2    0    0 -2.5100780795e+01 +1.0548278881e+01 -1.7620444552e+02 1.0027083919e+03 9.8672934343e+02 0.0000e+00 0.0000e+00
  5000521  1    3    3    0    0 -4.6997846048e+02 -3.5142219795e+01 +9.3195361724e+01 4.8052065967e+02 1.0000000000e+01 0.0000e+00 1.0000e+00
 -5000521  1    3    3    0    0 +4.4487767968e+02 +4.5690498676e+01 -2.6939980724e+02 5.2218773223e+02 1.0000000000e+01 0.0000e+00 -1.0000e+00
       21  1    1    2  502  501 +2.5100780795e+01 -1.0548278881e+01 +1.2335678745e+01 2.9891208640e+01 0.0000000000e+00 0.0000e+00 -1.0000e+00
<mgrwt>
<rscale>  1 0.98710491E+03</rscale>
<asrwt>0</asrwt>
<pdfrwt beam="1">  1        2 0.66825449E-01 0.98710491E+03</pdfrwt>
<pdfrwt beam="2">  1       -2 0.92036028E-01 0.98710491E+03</pdfrwt>
<totfact> 0.72611951E+01</totfact>
</mgrwt>
</event>
<event>
 6      1 +3.0741590e+01 1.04048100e+03 7.81860800e-03 9.26522700e-02
        2 -1    0    0  502    0 -0.0000000000e+00 +0.0000000000e+00 +3.6000147288e+03 3.6000147288e+03 0.0000000000e+00 0.0000e+00 1.0000e+00
       21 -1    0    0  501  502 +0.0000000000e+00 -0.0000000000e+00 -1.3742128125e+02 1.3742128125e+02 0.0000000000e+00 0.0000e+00 1.0000e+00
  5000001  2    1    2    0    0 -2.5761156965e+02 +1.3741290722e+02 +2.0965477083e+03 2.3405369480e+03 9.9867656618e+02 0.0000e+00 0.0000e+00
  5000521  1    3    3    0    0 -5.0339054130e+00 +3.8604744995e+02 +2.4955833290e+02 4.5982315659e+02 1.0000000000e+01 0.0000e+00 -1.0000e+00
 -5000521  1    3    3    0    0 -2.5257766423e+02 -2.4863454273e+02 +1.8469893754e+03 1.8807137914e+03 1.0000000000e+01 0.0000e+00 1.0000e+00
        2  1    1    2  501    0 +2.5761156965e+02 -1.3741290722e+02 +1.3660457392e+03 1.3968990621e+03 0.0000000000e+00 0.0000e+00 1.0000e+00
<mgrwt>
<rscale>  1 0.10404811E+04</rscale>
<asrwt>0</asrwt>
<pdfrwt beam="1">  1       21 0.21141738E-01 0.10404811E+04</pdfrwt>
<pdfrwt beam="2">  1        2 0.55384835E+00 0.10404811E+04</pdfrwt>
<totfact> 0.17489523E+02</totfact>
</mgrwt>
</event>
<event>
 6      1 +3.0741590e+01 9.90739900e+02 7.81860800e-03 9.31876000e-02
       -2 -1    0    0    0  501 -0.0000000000e+00 +0.0000000000e+00 +1.5171718869e+02 1.5171718869e+02 0.0000000000e+00 0.0000e+00 -1.0000e+00
        2 -1    0    0  502    0 +0.0000000000e+00 -0.0000000000e+00 -2.0598260913e+03 2.0598260913e+03 0.0000000000e+00 0.0000e+00 1.0000e+00
  5000001  2    1    2    0    0 -2.2539847294e+01 +9.4565553149e+00 -1.9358041644e+03 2.1746041587e+03 9.9043829351e+02 0.0000e+00 0.0000e+00
  5000521  1    3    3    0    0 +4.6714900228e+01 -4.3303763525e+02 -4.6552059033e+02 6.3758395171e+02 1.0000000000e+01 0.0000e+00 -1.0000e+00
 -5000521  1    3    3    0    0 -6.9254747522e+01 +4.4249419057e+02 -1.4702835740e+03 1.5370202070e+03 1.0000000000e+01 0.0000e+00 1.0000e+00
       21  1    1    2  502  501 +2.2539847294e+01 -9.4565553149e+00 +2.7695261762e+01 3.6939121248e+01 0.0000000000e+00 0.0000e+00 1.0000e+00
<mgrwt>
<rscale>  1 0.99073987E+03</rscale>
<asrwt>0</asrwt>
<pdfrwt beam="1">  1        2 0.31689632E+00 0.99073987E+03</pdfrwt>
<pdfrwt beam="2">  1       -2 0.23341106E-01 0.99073987E+03</pdfrwt>
<totfact> 0.10087844E+02</totfact>
</mgrwt>
</event>
<event>
 6      1 +3.0741590e+01 1.01482700e+03 7.81860800e-03 9.29243100e-02
       -2 -1    0    0    0  501 -0.0000000000e+00 +0.0000000000e+00 +1.8727317043e+03 1.8727317043e+03 0.0000000000e+00 0.0000e+00 -1.0000e+00
       21 -1    0    0  501  502 +0.0000000000e+00 -0.0000000000e+00 -1.9486327868e+02 1.9486327868e+02 0.0000000000e+00 0.0000e+00 1.0000e+00
  5000001  2    1    2    0    0 +1.0077621182e+02 +3.4504060522e+01 +1.6780772812e+03 1.9610754135e+03 1.0092210069e+03 0.0000e+00 0.0000e+00
  5000521  1    3    3    0    0 +4.9170154536e+02 +2.4984680659e+02 +7.4799831705e+02 9.2940589560e+02 1.0000000000e+01 0.0000e+00 1.0000e+00
 -5000521  1    3    3    0    0 -3.9092533354e+02 -2.1534274607e+02 +9.3007896413e+02 1.0316695179e+03 1.0000000000e+01 0.0000e+00 -1.0000e+00
       -2  1    1    2    0  502 -1.0077621182e+02 -3.4504060522e+01 -2.0885553507e-01 1.0651956948e+02 0.0000000000e+00 0.0000e+00 -1.0000e+00
<mgrwt>
<rscale>  1 0.10148268E+04</rscale>
<asrwt>0</asrwt>
<pdfrwt beam="1">  1       21 0.29978967E-01 0.10148268E+04</pdfrwt>
<pdfrwt beam="2">  1       -2 0.28811256E+00 0.10148268E+04</pdfrwt>
<totfact> 0.30559827E+01</totfact>
</mgrwt>
</event>
<event>
 6      1 +3.0741590e+01 1.01370300e+03 7.81860800e-03 9.29364200e-02
        2 -1    0    0  502    0 -0.0000000000e+00 +0.0000000000e+00 +3.3397361853e+03 3.3397361853e+03 0.0000000000e+00 0.0000e+00 -1.0000e+00
       21 -1    0    0  501  502 +0.0000000000e+00 -0.0000000000e+00 -1.0667171092e+03 1.0667171092e+03 0.0000000000e+00 0.0000e+00 -1.0000e+00
  5000001  2    1    2    0    0 -1.9677906926e+01 -1.3366321531e+02 +3.2580972557e+03 3.4121534932e+03 1.0046594737e+03 0.0000e+00 0.0000e+00
  5000521  1    3    3    0    0 -4.1999605099e+02 -3.6016915712e+02 +1.8180232216e+03 1.9003754731e+03 1.0000000000e+01 0.0000e+00 1.0000e+00
 -5000521  1    3    3    0    0 +4.0031814406e+02 +2.2650594181e+02 +1.4400740341e+03 1.5117780200e+03 1.0000000000e+01 0.0000e+00 -1.0000e+00
        2  1    1    2  501    0 +1.9677906926e+01 +1.3366321531e+02 -9.8507817959e+02 9.9429980139e+02 0.0000000000e+00 0.0000e+00 -1.0000e+00
<mgrwt>
<rscale>  1 0.10137030E+04</rscale>
<asrwt>0</asrwt>
<pdfrwt beam="1">  1       21 0.16411033E+00 0.10137030E+04</pdfrwt>
<pdfrwt beam="2">  1        2 0.51380556E+00 0.10137030E+04</pdfrwt>
<totfact> 0.24729345E+00</totfact>
</mgrwt>
</event>
<event>
 6      1 +3.0741590e+01 1.00838700e+03 7.81860800e-03 9.29939400e-02
       21 -1    0    0  501  502 +0.0000000000e+00 +0.0000000000e+00 +1.5426544721e+02 1.5426544721e+02 0.0000000000e+00 0.0000e+00 -1.0000e+00
        2 -1    0    0  502    0 -0.0000000000e+00 -0.0000000000e+00 -2.0951014538e+03 2.0951014538e+03 0.0000000000e+00 0.0000e+00 1.0000e+00
  5000001  2    1    2    0    0 +4.5416663077e-01 -1.2800335920e+02 -1.7450060618e+03 2.0154129878e+03 1.0002291185e+03 0.0000e+00 0.0000e+00
  5000521  1    3    3    0    0 +3.1684115703e+02 +3.1441492281e+02 -9.7780266074e+02 1.0749153947e+03 1.0000000000e+01 0.0000e+00 1.0000e+00
 -5000521  1    3    3    0    0 -3.1638699040e+02 -4.4241828201e+02 -7.6720340107e+02 9.4049759307e+02 1.0000000000e+01 0.0000e+00 -1.0000e+00
        2  1    1    2  501    0 -4.5416663077e-01 +1.2800335920e+02 -1.9582994480e+02 2.3395391322e+02 0.0000000000e+00 0.0000e+00 1.0000e+00
<mgrwt>
<rscale>  1 0.10083865E+04</rscale>
<asrwt>0</asrwt>
<pdfrwt beam="1">  1       21 0.23733145E-01 0.10083865E+04</pdfrwt>
<pdfrwt beam="2">  1        2 0.32232331E+00 0.10083865E+04</pdfrwt>
<totfact> 0.11618899E+03</totfact>
</mgrwt>
</event>
<event>
 6      1 +3.0741590e+01 9.96253200e+02 7.81860800e-03 9.31266400e-02
       -1 -1    0    0    0  501 -0.0000000000e+00 +0.0000000000e+00 +3.0339333236e+02 3.0339333236e+02 0.0000000000e+00 0.0000e+00 1.0000e+00
        1 -1    0    0  502    0 +0.0000000000e+00 -0.0000000000e+00 -9.7118521839e+02 9.7118521839e+02 0.0000000000e+00 0.0000e+00 -1.0000e+00
  5000001  2    1    2    0    0 +4.5800746786e-01 +2.8958766354e+01 -5.1965640442e+02 1.1236383612e+03 9.9583209836e+02 0.0000e+00 0.0000e+00
  5000521  1    3    3    0    0 -4.1174470051e+02 -2.5504932630e+02 -3.3941449327e+02 5.9151166978e+02 1.0000000000e+01 0.0000e+00 -1.0000e+00
 -5000521  1    3    3    0    0 +4.1220270798e+02 +2.8400809266e+02 -1.8024191116e+02 5.3212669139e+02 1.0000000000e+01 0.0000e+00 1.0000e+00
       21  1    1    2  502  501 -4.5800746786e-01 -2.8958766354e+01 -1.4813548160e+02 1.5094018958e+02 0.0000000000e+00 0.0000e+00 -1.0000e+00
<mgrwt>
<rscale>  1 0.99625317E+03</rscale>
<asrwt>0</asrwt>
<pdfrwt beam="1">  1        1 0.14941311E+00 0.99625317E+03</pdfrwt>
<pdfrwt beam="2">  1       -1 0.46675898E-01 0.99625317E+03</pdfrwt>
<totfact> 0.73083788E+01</totfact>
</mgrwt>
</event>
<event>
 6      1 +3.0741590e+01 9.99080300e+02 7.81860800e-03 9.30955400e-02
        2 -1    0    0  502    0 +0.0000000000e+00 +0.0000000000e+00 +8.7279705595e+02 8.7279705595e+02 0.0000000000e+00 0.0000e+00 -1.0000e+00
       -2 -1    0    0    0  501 -0.0000000000e+00 -0.0000000000e+00 -3.0958000798e+02 3.0958000798e+02 0.0000000000e+00 0.0000e+00 1.0000e+00
  5000001  2    1    2    0    0 -2.7684686311e+01 +3.6252515203e+00 +5.0871397725e+02 1.1211384403e+03 9.9869009577e+02 0.0000e+00 0.0000e+00
  5000521  1    3    3    0    0 +1.1675908472e+02 -4.7207907530e+02 +3.4974938472e+02 5.9909596002e+02 1.0000000000e+01 0.0000e+00 1.0000e+00
 -5000521  1    3    3    0    0 -1.4444377103e+02 +4.7570432682e+02 +1.5896459252e+02 5.2204248028e+02 1.0000000000e+01 0.0000e+00 -1.0000e+00
       21  1    1    2  502  501 +2.7684686311e+01 -3.6252515203e+00 +5.4503070723e+01 6.1238623621e+01 0.0000000000e+00 0.0000e+00 1.0000e+00
<mgrwt>
<rscale>  1 0.99908032E+03</rscale>
<asrwt>0</asrwt>
<pdfrwt beam="1">  1        2 0.13427647E+00 0.99908032E+03</pdfrwt>
<pdfrwt beam="2">  1       -2 0.47627694E-01 0.99908032E+03</pdfrwt>
<totfact> 0.12758580E+02</totfact>
</mgrwt>
</event>
<event>
 6      1 +3.0741590e+01 1.00177100e+03 7.81860800e-03 9.30660500e-02
       -1 -1    0    0    0  501 -0.0000000000e+00 +0.0000000000e+00 +1.8521409290e+02 1.8521409290e+02 0.0000000000e+00 0.0000e+00 1.0000e+00
        1 -1    0    0  502    0 +0.0000000000e+00 -0.0000000000e+00 -1.5028994810e+03 1.5028994810e+03 0.0000000000e+00 0.0000e+00 -1.0000e+00
  5000001  2    1    2    0    0 +4.3822014171e+01 -5.0511723108e+00 -1.2984885893e+03 1.6400053589e+03 1.0007992193e+03 0.0000e+00 0.0000e+00
  5000521  1    3    3    0    0 -1.6049602852e+02 -1.3791436309e+02 +9.0059239240e+01 2.3019559790e+02 1.0000000000e+01 0.0000e+00 1.0000e+00
 -5000521  1    3    3    0    0 +2.0431804269e+02 +1.3286319078e+02 -1.3885478286e+03 1.4098097610e+03 1.0000000000e+01 0.0000e+00 -1.0000e+00
       21  1    1    2  502  501 -4.3822014171e+01 +5.0511723108e+00 -1.9196798790e+01 4.8108215010e+01 0.0000000000e+00 0.0000e+00 1.0000e+00
<mgrwt>
<rscale>  1 0.10017709E+04</rscale>
<asrwt>0</asrwt>
<pdfrwt beam="1">  1        1 0.23121530E+00 0.10017709E+04</pdfrwt>
<pdfrwt beam="2">  1       -1 0.28494476E-01 0.10017709E+04</pdfrwt>
<totfact> 0.72930867E+01</totfact>
</mgrwt>
</event>
<event>
 6      1 +3.0741590e+01 9.89665500e+02 7.81860800e-03 9.31995300e-02
        2 -1    0    0  502    0 +0.0000000000e+00 +0.0000000000e+00 +5.7678546746e+02 5.7678546746e+02 0.0000000000e+00 0.0000e+00 -1.0000e+00
       -2 -1    0    0    0  501 -0.0000000000e+00 -0.0000000000e+00 -5.5538799526e+02 5.5538799526e+02 0.0000000000e+00 0.0000e+00 1.0000e+00
  5000001  2    1    2    0    0 +8.4045262287e+00 +5.4383036240e+01 -1.0411575304e+02 9.9512704575e+02 9.8813440203e+02 0.0000e+00 0.0000e+00
  5000521  1    3    3    0    0 -4.7666977456e+01 +4.9816765246e+02 +8.7966731745e+01 5.0821382959e+02 1.0000000000e+01 0.0000e+00 -1.0000e+00
 -5000521  1    3    3    0    0 +5.6071503684e+01 -4.4378461621e+02 -1.9208248479e+02 4.8691321616e+02 1.0000000000e+01 0.0000e+00 1.0000e+00
       21  1    1    2  502  501 -8.4045262287e+00 -5.4383036240e+01 +1.2551322524e+02 1.3704641696e+02 0.0000000000e+00 0.0000e+00 -1.0000e+00
<mgrwt>
<rscale>  1 0.98966547E+03</rscale>
<asrwt>0</asrwt>
<pdfrwt beam="1">  1        2 0.88736226E-01 0.98966547E+03</pdfrwt>
<pdfrwt beam="2">  1       -2 0.85444307E-01 0.98966547E+03</pdfrwt>
<totfact> 0.61816658E+01</totfact>
</mgrwt>
</event>
<event>
 6      1 +3.0741590e+01 1.00218900e+03 7.81860800e-03 9.30614700e-02
       -2 -1    0    0    0  501 -0.0000000000e+00 +0.0000000000e+00 +2.1115307999e+02 2.1115307999e+02 0.0000000000e+00 0.0000e+00 1.0000e+00
        2 -1    0    0  502    0 +0.0000000000e+00 -0.0000000000e+00 -1.5890008752e+03 1.5890008752e+03 0.0000000000e+00 0.0000e+00 -1.0000e+00
  5000001  2    1    2    0    0 -5.3188326452e+01 +3.3903313268e+01 -1.4095875667e+03 1.7295434333e+03 1.0002024527e+03 0.0000e+00 0.0000e+00
  5000521  1    3    3    0    0 -3.4254328461e+01 -1.7470102513e+02 +1.0069221948e+02 2.0477482820e+02 1.0000000000e+01 0.0000e+00 1.0000e+00
 -5000521  1    3    3    0    0 -1.8933997991e+01 +2.0860433840e+02 -1.5102797862e+03 1.5247686050e+03 1.0000000000e+01 0.0000e+00 -1.0000e+00
       21  1    1    2  502  501 +5.3188326452e+01 -3.3903313268e+01 +3.1739771477e+01 7.0610521983e+01 0.0000000000e+00 0.0000e+00 1.0000e+00
<mgrwt>
<rscale>  1 0.10021893E+04</rscale>
<asrwt>0</asrwt>
<pdfrwt beam="1">  1        2 0.24446168E+00 0.10021893E+04</pdfrwt>
<pdfrwt beam="2">  1       -2 0.32485089E-01 0.10021893E+04</pdfrwt>
<totfact> 0.99757346E+01</totfact>
</mgrwt>
</event>
<event>
 6      1 +3.0741590e+01 9.84555300e+02 7.81860800e-03 9.32564800e-02
       -2 -1    0    0    0  501 -0.0000000000e+00 +0.0000000000e+00 +6.9584931999e+02 6.9584931999e+02 0.0000000000e+00 0.0000e+00 1.0000e+00
        2 -1    0    0  502    0 +0.0000000000e+00 -0.0000000000e+00 -3.8196646601e+02 3.8196646601e+02 0.0000000000e+00 0.0000e+00 -1.0000e+00
  5000001  2    1    2    0    0 -4.2266912909e+01 +7.4046497616e+00 +3.1817619836e+02 1.0346909258e+03 9.8361979335e+02 0.0000e+00 0.0000e+00
  5000521  1    3    3    0    0 -2.2248437403e+02 +4.3345848414e+02 +2.7176109882e+01 4.8808205776e+02 1.0000000000e+01 0.0000e+00 1.0000e+00
 -5000521  1    3    3    0    0 +1.8021746113e+02 -4.2605383437e+02 +2.9100008847e+02 5.4660886800e+02 1.0000000000e+01 0.0000e+00 -1.0000e+00
       21  1    1    2  502  501 +4.2266912909e+01 -7.4046497616e+00 -4.2933443766e+00 4.3124860242e+01 0.0000000000e+00 0.0000e+00 1.0000e+00
<mgrwt>
<rscale>  1 0.98455534E+03</rscale>
<asrwt>0</asrwt>
<pdfrwt beam="1">  1        2 0.58764072E-01 0.98455534E+03</pdfrwt>
<pdfrwt beam="2">  1       -2 0.10705374E+00 0.98455534E+03</pdfrwt>
<totfact> 0.58701399E+01</totfact>
</mgrwt>
</event>
<event>
 6      1 +3.0741590e+01 1.01573100e+03 7.81860800e-03 9.29145800e-02
        2 -1    0    0  502    0 +0.0000000000e+00 +0.0000000000e+00 +1.1408630589e+03 1.1408630589e+03 0.0000000000e+00 0.0000e+00 1.0000e+00
       -2 -1    0    0    0  501 -0.0000000000e+00 -0.0000000000e+00 -2.4307205703e+02 2.4307205703e+02 0.0000000000e+00 0.0000e+00 -1.0000e+00
  5000001  2    1    2    0    0 +8.1109083355e+00 +2.9096994925e+01 +8.3741335284e+02 1.3164230248e+03 1.0152812589e+03 0.0000e+00 0.0000e+00
  5000521  1    3    3    0    0 +3.3384757026e+02 +3.1958866569e+02 +7.3454995075e+02 8.6790249772e+02 1.0000000000e+01 0.0000e+00 -1.0000e+00
 -5000521  1    3    3    0    0 -3.2573666193e+02 -2.9049167077e+02 +1.0286340209e+02 4.4852052707e+02 1.0000000000e+01 0.0000e+00 1.0000e+00
       21  1    1    2  502  501 -8.1109083355e+00 -2.9096994925e+01 +6.0377649023e+01 6.7512091133e+01 0.0000000000e+00 0.0000e+00 -1.0000e+00
<mgrwt>
<rscale>  1 0.10157305E+04</rscale>
<asrwt>0</asrwt>
<pdfrwt beam="1">  1        2 0.17551739E+00 0.10157305E+04</pdfrwt>
<pdfrwt beam="2">  1       -2 0.37395702E-01 0.10157305E+04</pdfrwt>
<totfact> 0.13818280E+02</totfact>
</mgrwt>
</event>
<event>
 6      1 +3.0741590e+01 1.00076200e+03 7.81860800e-03 9.30770900e-02
        1 -1    0    0  502    0 -0.0000000000e+00 +0.0000000000e+00 +1.7614721838e+03 1.7614721838e+03 0.0000000000e+00 0.0000e+00 -1.0000e+00
       21 -1    0    0  501  502 +0.0000000000e+00 -0.0000000000e+00 -1.8445741414e+02 1.8445741414e+02 0.0000000000e+00 0.0000e+00 1.0000e+00
  5000001  2    1    2    0    0 -2.0673014052e+01 -2.3532892240e+01 +1.6129916591e+03 1.8982273223e+03 1.0002718151e+03 0.0000e+00 0.0000e+00
  5000521  1    3    3    0    0 -2.5206999367e+02 +1.9584653471e+02 +1.5376080325e+03 1.5704246586e+03 1.0000000000e+01 0.0000e+00 -1.0000e+00
 -5000521  1    3    3    0    0 +2.3139697962e+02 -2.1937942695e+02 +7.5383626677e+01 3.2780266368e+02 1.0000000000e+01 0.0000e+00 1.0000e+00
        1  1    1    2  501    0 +2.0673014052e+01 +2.3532892240e+01 -3.5976889471e+01 4.7702275661e+01 0.0000000000e+00 0.0000e+00 -1.0000e+00
<mgrwt>
<rscale>  1 0.10007621E+04</rscale>
<asrwt>0</asrwt>
<pdfrwt beam="1">  1       21 0.28378065E-01 0.10007621E+04</pdfrwt>
<pdfrwt beam="2">  1        1 0.27099571E+00 0.10007621E+04</pdfrwt>
<totfact> 0.52460804E+02</totfact>
</mgrwt>
</event>
<event>
 6      1 +3.0741590e+01 9.98799600e+02 7.81860800e-03 9.30986200e-02
       -2 -1    0    0    0  501 -0.0000000000e+00 +0.0000000000e+00 +9.2500199712e+01 9.2500199712e+01 0.0000000000e+00 0.0000e+00 -1.0000e+00
        2 -1    0    0  502    0 +0.0000000000e+00 -0.0000000000e+00 -2.9404829762e+03 2.9404829762e+03 0.0000000000e+00 0.0000e+00 1.0000e+00
  5000001  2    1    2    0    0 +4.1116373280e+01 +3.5438076235e+00 -2.6819181492e+03 2.8618674982e+03 9.9794664361e+02 0.0000e+00 0.0000e+00
  5000521  1    3    3    0    0 -2.1009283909e+02 -1.0980015336e+02 -8.7580989163e+01 2.5291402567e+02 1.0000000000e+01 0.0000e+00 -1.0000e+00
 -5000521  1    3    3    0    0 +2.5120921237e+02 +1.1334396098e+02 -2.5943371601e+03 2.6089534726e+03 1.0000000000e+01 0.0000e+00 1.0000e+00
       21  1    1    2  502  501 -4.1116373280e+01 -3.5438076235e+00 -1.6606462727e+02 1.7111567770e+02 0.0000000000e+00 0.0000e+00 -1.0000e+00
<mgrwt>
<rscale>  1 0.99879959E+03</rscale>
<asrwt>0</asrwt>
<pdfrwt beam="1">  1        2 0.45238198E+00 0.99879959E+03</pdfrwt>
<pdfrwt beam="2">  1       -2 0.14230801E-01 0.99879959E+03</pdfrwt>
<totfact> 0.74312791E+01</totfact>
</mgrwt>
</event>
<event>
 6      1 +3.0741590e+01 9.99056200e+02 7.81860800e-03 9.30958100e-02
        1 -1    0    0  502    0 -0.0000000000e+00 +0.0000000000e+00 +1.5851621236e+03 1.5851621236e+03 0.0000000000e+00 0.0000e+00 -1.0000e+00
       21 -1    0    0  501  502 +0.0000000000e+00 -0.0000000000e+00 -3.6440182813e+02 3.6440182813e+02 0.0000000000e+00 0.0000e+00 -1.0000e+00
  5000001  2    1    2    0    0 -3.5782452584e+01 +1.4102298120e+01 +1.4257811466e+03 1.7409667128e+03 9.9831556047e+02 0.0000e+00 0.0000e+00
  5000521  1    3    3    0    0 +1.2145799112e+02 +4.6418683728e+02 +9.6550938289e+02 1.0782067668e+03 1.0000000000e+01 0.0000e+00 -1.0000e+00
 -5000521  1    3    3    0    0 -1.5724044371e+02 -4.5008453916e+02 +4.6027176371e+02 6.6275994598e+02 1.0000000000e+01 0.0000e+00 1.0000e+00
        1  1    1    2  501    0 +3.5782452584e+01 -1.4102298120e+01 -2.0502085110e+02 2.0859723898e+02 0.0000000000e+00 0.0000e+00 -1.0000e+00
<mgrwt>
<rscale>  1 0.99905616E+03</rscale>
<asrwt>0</asrwt>
<pdfrwt beam="1">  1       21 0.56061821E-01 0.99905616E+03</pdfrwt>
<pdfrwt beam="2">  1        1 0.24387109E+00 0.99905616E+03</pdfrwt>
<totfact> 0.16594162E+02</totfact>
</mgrwt>
</event>
<event>
 6      1 +3.0741590e+01 1.00752500e+03 7.81860800e-03 9.30033000e-02
       -1 -1    0    0    0  501 -0.0000000000e+00 +0.0000000000e+00 +6.6586822505e+02 6.6586822505e+02 0.0000000000e+00 0.0000e+00 1.0000e+00
        1 -1    0    0  502    0 +0.0000000000e+00 -0.0000000000e+00 -4.0189062172e+02 4.0189062172e+02 0.0000000000e+00 0.0000e+00 -1.0000e+00
  5000001  2    1    2    0    0 -1.7200041178e+01 +1.5381947764e+01 +2.7154258784e+02 1.0434756278e+03 1.0072604246e+03 0.0000e+00 0.0000e+00
  5000521  1    3    3    0    0 +4.2825327139e+02 -1.6908019159e+02 -5.0949725334e+01 4.6334096533e+02 1.0000000000e+01 0.0000e+00 1.0000e+00
 -5000521  1    3    3    0    0 -4.4545331257e+02 +1.8446213935e+02 +3.2249231318e+02 5.8013466246e+02 1.0000000000e+01 0.0000e+00 -1.0000e+00
       21  1    1    2  502  501 +1.7200041178e+01 -1.5381947764e+01 -7.5649845142e+00 2.4283218984e+01 0.0000000000e+00 0.0000e+00 -1.0000e+00
<mgrwt>
<rscale>  1 0.10075247E+04</rscale>
<asrwt>0</asrwt>
<pdfrwt beam="1">  1        1 0.61829326E-01 0.10075247E+04</pdfrwt>
<pdfrwt beam="2">  1       -1 0.10244127E+00 0.10075247E+04</pdfrwt>
<totfact> 0.53898651E+01</totfact>
</mgrwt>
</event>
<event>
 6      1 +3.0741590e+01 1.03102800e+03 7.81860800e-03 9.27515400e-02
       21 -1    0    0  501  502 +0.0000000000e+00 +0.0000000000e+00 +1.6231594255e+02 1.6231594255e+02 0.0000000000e+00 0.0000e+00 1.0000e+00
        2 -1    0    0  502    0 -0.0000000000e+00 -0.0000000000e+00 -3.0340551824e+03 3.0340551824e+03 0.0000000000e+00 0.0000e+00 1.0000e+00
  5000001  2    1    2    0    0 +1.0157716942e+02 +2.2170089871e+02 -2.7207400858e+03 2.9095437302e+03 1.0017728753e+03 0.0000e+00 0.0000e+00
  5000521  1    3    3    0    0 -1.3933784217e+02 +4.6817012875e+02 -2.3618775755e+03 2.4118797618e+03 1.0000000000e+01 0.0000e+00 1.0000e+00
 -5000521  1    3    3    0    0 +2.4091501159e+02 -2.4646923004e+02 -3.5886251036e+02 4.9766396847e+02 1.0000000000e+01 0.0000e+00 -1.0000e+00
        2  1    1    2  501    0 -1.0157716942e+02 -2.2170089871e+02 -1.5099915399e+02 2.8682739468e+02 0.0000000000e+00 0.0000e+00 1.0000e+00
<mgrwt>
<rscale>  1 0.10310277E+04</rscale>
<asrwt>0</asrwt>
<pdfrwt beam="1">  1       21 0.24971684E-01 0.10310277E+04</pdfrwt>
<pdfrwt beam="2">  1        2 0.46677772E+00 0.10310277E+04</pdfrwt>
<totfact> 0.29886821E+02</totfact>
</mgrwt>
</event>
<event>
 6      1 +3.0741590e+01 1.00050200e+03 7.81860800e-03 9.30799400e-02
        2 -1    0    0  502    0 +0.0000000000e+00 +0.0000000000e+00 +3.9972101309e+02 3.9972101309e+02 0.0000000000e+00 0.0000e+00 1.0000e+00
       -2 -1    0    0    0  501 -0.0000000000e+00 -0.0000000000e+00 -6.8128556662e+02 6.8128556662e+02 0.0000000000e+00 0.0000e+00 -1.0000e+00
  5000001  2    1    2    0    0 -2.3937668513e+01 +2.4334603559e+01 -2.4316381297e+02 1.0296275784e+03 9.9991955941e+02 0.0000e+00 0.0000e+00
  5000521  1    3    3    0    0 +2.7257166850e+02 -3.9586856766e+02 -6.4207922515e+01 4.8500504600e+02 1.0000000000e+01 0.0000e+00 1.0000e+00
 -5000521  1    3    3    0    0 -2.9650933701e+02 +4.2020317122e+02 -1.7895589046e+02 5.4462253237e+02 1.0000000000e+01 0.0000e+00 -1.0000e+00
       21  1    1    2  502  501 +2.3937668513e+01 -2.4334603559e+01 -3.8400740550e+01 5.1379001343e+01 0.0000000000e+00 0.0000e+00 -1.0000e+00
<mgrwt>
<rscale>  1 0.10005020E+04</rscale>
<asrwt>0</asrwt>
<pdfrwt beam="1">  1        2 0.61495541E-01 0.10005020E+04</pdfrwt>
<pdfrwt beam="2">  1       -2 0.10481316E+00 0.10005020E+04</pdfrwt>
<totfact> 0.58636629E+01</totfact>
</mgrwt>
</event>
<event>
 6      1 +3.0741590e+01 9.88900600e+02 7.81860800e-03 9.32080300e-02
       -1 -1    0    0    0  501 -0.0000000000e+00 +0.0000000000e+00 +2.8872126375e+02 2.8872126375e+02 0.0000000000e+00 0.0000e+00 1.0000e+00
        1 -1    0    0  502    0 +0.0000000000e+00 -0.0000000000e+00 -8.9436376217e+02 8.9436376217e+02 0.0000000000e+00 0.0000e+00 -1.0000e+00
  5000001  2    1    2    0    0 -2.1689597653e+01 +1.3110280967e+00 -5.7020375161e+02 1.1415150582e+03 9.8866179875e+02 0.0000e+00 0.0000e+00
  5000521  1    3    3    0    0 +2.8778796052e+02 -1.7078410493e+02 -6.9051006517e+02 7.6739381729e+02 1.0000000000e+01 0.0000e+00 -1.0000e+00
 -5000521  1    3    3    0    0 -3.0947755817e+02 +1.7209513302e+02 +1.2030631356e+02 3.7412124091e+02 1.0000000000e+01 0.0000e+00 1.0000e+00
       21  1    1    2  502  501 +2.1689597653e+01 -1.3110280967e+00 -3.5438746800e+01 4.1569967714e+01 0.0000000000e+00 0.0000e+00 1.0000e+00
<mgrwt>
<rscale>  1 0.98890056E+03</rscale>
<asrwt>0</asrwt>
<pdfrwt beam="1">  1        1 0.13759442E+00 0.98890056E+03</pdfrwt>
<pdfrwt beam="2">  1       -1 0.44418657E-01 0.98890056E+03</pdfrwt>
<totfact> 0.92529631E+01</totfact>
</mgrwt>
</event>
<event>
 6      1 +3.0741590e+01 1.00062900e+03 7.81860800e-03 9.30785500e-02
       -2 -1    0    0    0  501 -0.0000000000e+00 +0.0000000000e+00 +4.5051395256e+02 4.5051395256e+02 0.0000000000e+00 0.0000e+00 -1.0000e+00
        2 -1    0    0  502    0 +0.0000000000e+00 -0.0000000000e+00 -7.0485293305e+02 7.0485293305e+02 0.0000000000e+00 0.0000e+00 1.0000e+00
  5000001  2    1    2    0    0 +3.7717164077e+01 +5.3456495152e+01 -3.3158578427e+02 1.0541381840e+03 9.9848785534e+02 0.0000e+00 0.0000e+00
  5000521  1    3    3    0    0 +3.2128503936e+02 +9.8549679945e+01 +2.4089942616e+02 4.1360446015e+02 1.0000000000e+01 0.0000e+00 -1.0000e+00
 -5000521  1    3    3    0    0 -2.8356787528e+02 -4.5093184792e+01 -5.7248521043e+02 6.4053372383e+02 1.0000000000e+01 0.0000e+00 1.0000e+00
       21  1    1    2  502  501 -3.7717164077e+01 -5.3456495152e+01 +7.7246803783e+01 1.0122870164e+02 0.0000000000e+00 0.0000e+00 1.0000e+00
<mgrwt>
<rscale>  1 0.10006289E+04</rscale>
<asrwt>0</asrwt>
<pdfrwt beam="1">  1        2 0.10843891E+00 0.10006289E+04</pdfrwt>
<pdfrwt beam="2">  1       -2 0.69309839E-01 0.10006289E+04</pdfrwt>
<totfact> 0.76982526E+01</totfact>
</mgrwt>
</event>
<event>
 6      1 +3.0741590e+01 9.87944300e+02 7.81860800e-03 9.32186700e-02
       -1 -1    0    0    0  501 -0.0000000000e+00 +0.0000000000e+00 +1.4029512574e+02 1.4029512574e+02 0.0000000000e+00 0.0000e+00 1.0000e+00
        1 -1    0    0  502    0 +0.0000000000e+00 -0.0000000000e+00 -2.0550250916e+03 2.0550250916e+03 0.0000000000e+00 0.0000e+00 -1.0000e+00
  5000001  2    1    2    0    0 +3.1798243963e+01 -6.8977733127e+01 -1.6839561553e+03 1.9523683546e+03 9.8502020435e+02 0.0000e+00 0.0000e+00
  5000521  1    3    3    0    0 +1.3745106462e+02 +2.0042675828e+02 -1.6418496124e+03 1.6597692099e+03 1.0000000000e+01 0.0000e+00 -1.0000e+00
 -5000521  1    3    3    0    0 -1.0565282065e+02 -2.6940449141e+02 -4.2106542965e+01 2.9259914467e+02 1.0000000000e+01 0.0000e+00 1.0000e+00
       21  1    1    2  502  501 -3.1798243963e+01 +6.8977733127e+01 -2.3077381058e+02 2.4295186280e+02 0.0000000000e+00 0.0000e+00 1.0000e+00
<mgrwt>
<rscale>  1 0.98794426E+03</rscale>
<asrwt>0</asrwt>
<pdfrwt beam="1">  1        1 0.31615772E+00 0.98794426E+03</pdfrwt>
<pdfrwt beam="2">  1       -1 0.21583864E-01 0.98794426E+03</pdfrwt>
<totfact> 0.49656100E+01</totfact>
</mgrwt>
</event>
<event>
 6      1 +3.0741590e+01 1.05275300e+03 7.81860800e-03 9.25250600e-02
       -2 -1    0    0    0  501 -0.0000000000e+00 +0.0000000000e+00 +1.9593915659e+02 1.9593915659e+02 0.0000000000e+00 0.0000e+00 -1.0000e+00
        2 -1    0    0  502    0 +0.0000000000e+00 -0.0000000000e+00 -1.8410853557e+03 1.8410853557e+03 0.0000000000e+00 0.0000e+00 1.0000e+00
  5000001  2    1    2    0    0 +2.5092635023e+01 +5.6938408522e+01 -1.6665596552e+03 1.9712205701e+03 1.0509128551e+03 0.0000e+00 0.0000e+00
  5000521  1    3    3    0    0 +2.2390258023e+02 -3.6127271426e+02 -1.3364701943e+03 1.4024631616e+03 1.0000000000e+01 0.0000e+00 1.0000e+00
 -5000521  1    3    3    0    0 -1.9880994521e+02 +4.1821112278e+02 -3.3008946095e+02 5.6875740854e+02 1.0000000000e+01 0.0000e+00 -1.0000e+00
       21  1    1    2  502  501 -2.5092635023e+01 -5.6938408522e+01 +2.1413456121e+01 6.5803942135e+01 0.0000000000e+00 0.0000e+00 -1.0000e+00
<mgrwt>
<rscale>  1 0.10527533E+04</rscale>
<asrwt>0</asrwt>
<pdfrwt beam="1">  1        2 0.28324389E+00 0.10527533E+04</pdfrwt>
<pdfrwt beam="2">  1       -2 0.30144487E-01 0.10527533E+04</pdfrwt>
<totfact> 0.82972194E+01</totfact>
</mgrwt>
</event>
<event>
 6      1 +3.0741590e+01 9.84034500e+02 7.81860800e-03 9.32623100e-02
       -1 -1    0    0    0  501 -0.0000000000e+00 +0.0000000000e+00 +3.0405661263e+02 3.0405661263e+02 0.0000000000e+00 0.0000e+00 1.0000e+00
        1 -1    0    0  502    0 +0.0000000000e+00 -0.0000000000e+00 -9.7273427531e+02 9.7273427531e+02 0.0000000000e+00 0.0000e+00 -1.0000e+00
  5000001  2    1    2    0    0 -1.7072208528e+01 +2.8086019155e+01 -4.9780246077e+02 1.1027833611e+03 9.8348541765e+02 0.0000e+00 0.0000e+00
  5000521  1    3    3    0    0 +4.5731467117e+02 -6.1838995207e+01 -3.9835760069e+02 6.0971267645e+02 1.0000000000e+01 0.0000e+00 -1.0000e+00
 -5000521  1    3    3    0    0 -4.7438687970e+02 +8.9925014363e+01 -9.9444860081e+01 4.9307068462e+02 1.0000000000e+01 0.0000e+00 1.0000e+00
       21  1    1    2  502  501 +1.7072208528e+01 -2.8086019155e+01 -1.7087520192e+02 1.7400752687e+02 0.0000000000e+00 0.0000e+00 1.0000e+00
<mgrwt>
<rscale>  1 0.98403448E+03</rscale>
<asrwt>0</asrwt>
<pdfrwt beam="1">  1        1 0.14965143E+00 0.98403448E+03</pdfrwt>
<pdfrwt beam="2">  1       -1 0.46777940E-01 0.98403448E+03</pdfrwt>
<totfact> 0.72637862E+01</totfact>
</mgrwt>
</event>
<event>
 6      1 +3.0741590e+01 1.01595400e+03 7.81860800e-03 9.29121700e-02
        1 -1    0    0  502    0 -0.0000000000e+00 +0.0000000000e+00 +1.8699520597e+03 1.8699520597e+03 0.0000000000e+00 0.0000e+00 1.0000e+00
       21 -1    0    0  501  502 +0.0000000000e+00 -0.0000000000e+00 -2.1230389609e+02 2.1230389609e+02 0.0000000000e+00 0.0000e+00 -1.0000e+00
  5000001  2    1    2    0    0 +2.4119239111e+01 +1.6121671407e+02 +1.6243160579e+03 1.9158720748e+03 1.0027913963e+03 0.0000e+00 0.0000e+00
  5000521  1    3    3    0    0 -4.0724290708e+02 +3.4206331388e+02 +6.9265846606e+02 8.7334405973e+02 1.0000000000e+01 0.0000e+00 -1.0000e+00
 -5000521  1    3    3    0    0 +4.3136214619e+02 -1.8084659982e+02 +9.3165759180e+02 1.0425280151e+03 1.0000000000e+01 0.0000e+00 1.0000e+00
        1  1    1    2  501    0 -2.4119239111e+01 -1.6121671407e+02 +3.3332105793e+01 1.6638388103e+02 0.0000000000e+00 0.0000e+00 1.0000e+00
<mgrwt>
<rscale>  1 0.10159543E+04</rscale>
<asrwt>0</asrwt>
<pdfrwt beam="1">  1       21 0.32662139E-01 0.10159543E+04</pdfrwt>
<pdfrwt beam="2">  1        1 0.28768492E+00 0.10159543E+04</pdfrwt>
<totfact> 0.33286076E+02</totfact>
</mgrwt>
</event>
<event>
 6      1 +3.0741590e+01 9.99649900e+02 7.81860800e-03 9.30892900e-02
       21 -1    0    0  501  502 +0.0000000000e+00 +0.0000000000e+00 +5.8462972110e+02 5.8462972110e+02 0.0000000000e+00 0.0000e+00 1.0000e+00
        2 -1    0    0  502    0 -0.0000000000e+00 -0.0000000000e+00 -6.7600530879e+02 6.7600530879e+02 0.0000000000e+00 0.0000e+00 1.0000e+00
  5000001  2    1    2    0    0 +9.7336369211e+01 +1.1526287809e+01 -2.8853302243e+02 1.0404571969e+03 9.9483297564e+02 0.0000e+00 0.0000e+00
  5000521  1    3    3    0    0 +1.6641195686e+02 -1.8756625266e+02 -6.0792174919e+02 6.5767993101e+02 1.0000000000e+01 0.0000e+00 1.0000e+00
 -5000521  1    3    3    0    0 -6.9075587646e+01 +1.9909254047e+02 +3.1938872676e+02 3.8277726586e+02 1.0000000000e+01 0.0000e+00 -1.0000e+00
        2  1    1    2  501    0 -9.7336369211e+01 -1.1526287809e+01 +1.9715743474e+02 2.2017783302e+02 0.0000000000e+00 0.0000e+00 1.0000e+00
<mgrwt>
<rscale>  1 0.99964988E+03</rscale>
<asrwt>0</asrwt>
<pdfrwt beam="1">  1       21 0.89943034E-01 0.99964988E+03</pdfrwt>
<pdfrwt beam="2">  1        2 0.10400082E+00 0.99964988E+03</pdfrwt>
<totfact> 0.47466022E+02</totfact>
</mgrwt>
</event>
<event>
 6      1 +3.0741590e+01 9.40519400e+02 7.81860800e-03 9.37630100e-02
       21 -1    0    0  501  502 +0.0000000000e+00 +0.0000000000e+00 +2.0690632679e+03 2.0690632679e+03 0.0000000000e+00 0.0000e+00 1.0000e+00
        4 -1    0    0  502    0 -0.0000000000e+00 -0.0000000000e+00 -1.6379585642e+02 1.6379585642e+02 0.0000000000e+00 0.0000e+00 -1.0000e+00
  5000001  2    1    2    0    0 +1.0157297026e+02 +9.1925318018e+01 +1.2549654208e+03 1.5682840635e+03 9.3048877697e+02 0.0000e+00 0.0000e+00
  5000521  1    3    3    0    0 +1.7904437955e+02 +3.9522097513e+02 +1.1638035456e+03 1.2420930729e+03 1.0000000000e+01 0.0000e+00 1.0000e+00
 -5000521  1    3    3    0    0 -7.7471409290e+01 -3.0329565711e+02 +9.1161875253e+01 3.2619099065e+02 1.0000000000e+01 0.0000e+00 -1.0000e+00
        4  1    1    2  501    0 -1.0157297026e+02 -9.1925318018e+01 +6.5030199065e+02 6.6457506079e+02 0.0000000000e+00 0.0000e+00 -1.0000e+00
<mgrwt>
<rscale>  1 0.94051938E+03</rscale>
<asrwt>0</asrwt>
<pdfrwt beam="1">  1       21 0.31831741E+00 0.94051938E+03</pdfrwt>
<pdfrwt beam="2">  1        4 0.25199364E-01 0.94051938E+03</pdfrwt>
<totfact> 0.12505737E+01</totfact>
</mgrwt>
</event>
<event>
 6      1 +3.0741590e+01 1.02523600e+03 7.81860800e-03 9.28129200e-02
       21 -1    0    0  501  502 +0.0000000000e+00 +0.0000000000e+00 +6.9161382425e+02 6.9161382425e+02 0.0000000000e+00 0.0000e+00 1.0000e+00
        1 -1    0    0  502    0 -0.0000000000e+00 -0.0000000000e+00 -5.3920898650e+02 5.3920898650e+02 0.0000000000e+00 0.0000e+00 -1.0000e+00
  5000001  2    1    2    0    0 +1.1018484104e+02 +1.6200520852e+02 +1.1995285870e+02 1.0322289596e+03 1.0063406729e+03 0.0000e+00 0.0000e+00
  5000521  1    3    3    0    0 -4.0848080685e+02 +2.7441904253e+02 +9.1735485012e+01 5.0067732092e+02 1.0000000000e+01 0.0000e+00 -1.0000e+00
 -5000521  1    3    3    0    0 +5.1866564789e+02 -1.1241383401e+02 +2.8217373687e+01 5.3155163865e+02 1.0000000000e+01 0.0000e+00 1.0000e+00
        1  1    1    2  501    0 -1.1018484104e+02 -1.6200520852e+02 +3.2451979049e+01 1.9859385118e+02 0.0000000000e+00 0.0000e+00 -1.0000e+00
<mgrwt>
<rscale>  1 0.10252356E+04</rscale>
<asrwt>0</asrwt>
<pdfrwt beam="1">  1       21 0.10640213E+00 0.10252356E+04</pdfrwt>
<pdfrwt beam="2">  1        1 0.82955229E-01 0.10252356E+04</pdfrwt>
<totfact> 0.25622252E+02</totfact>
</mgrwt>
</event>
<event>
 6      1 +3.0741590e+01 1.00162100e+03 7.81860800e-03 9.30676900e-02
       -1 -1    0    0    0  501 -0.0000000000e+00 +0.0000000000e+00 +6.7441013665e+02 6.7441013665e+02 0.0000000000e+00 0.0000e+00 -1.0000e+00
        1 -1    0    0  502    0 +0.0000000000e+00 -0.0000000000e+00 -7.1974985017e+02 7.1974985017e+02 0.0000000000e+00 0.0000e+00 1.0000e+00
  5000001  2    1    2    0    0 -1.9583575323e+01 -7.3960178395e+00 -3.7078094395e+02 1.0680461847e+03 1.0014019806e+03 0.0000e+00 0.0000e+00
  5000521  1    3    3    0    0 +1.6337791175e+02 +4.0510503921e+02 +6.3700626955e+01 4.4154298173e+02 1.0000000000e+01 0.0000e+00 -1.0000e+00
 -5000521  1    3    3    0    0 -1.8296148707e+02 -4.1250105705e+02 -4.3448157091e+02 6.2650320293e+02 1.0000000000e+01 0.0000e+00 1.0000e+00
       21  1    1    2  502  501 +1.9583575323e+01 +7.3960178395e+00 +3.2544123043e+02 3.2611380217e+02 0.0000000000e+00 0.0000e+00 -1.0000e+00
<mgrwt>
<rscale>  1 0.10016208E+04</rscale>
<asrwt>0</asrwt>
<pdfrwt beam="1">  1        1 0.11073075E+00 0.10016208E+04</pdfrwt>
<pdfrwt beam="2">  1       -1 0.10375541E+00 0.10016208E+04</pdfrwt>
<totfact> 0.22905902E+01</totfact>
</mgrwt>
</event>
<event>
 6      1 +3.0741590e+01 9.85152100e+02 7.81860800e-03 9.32498100e-02
       -4 -1    0    0    0  501 -0.0000000000e+00 +0.0000000000e+00 +9.9815924621e+02 9.9815924621e+02 0.0000000000e+00 0.0000e+00 -1.0000e+00
        4 -1    0    0  502    0 +0.0000000000e+00 -0.0000000000e+00 -2.6588076364e+02 2.6588076364e+02 0.0000000000e+00 0.0000e+00 1.0000e+00
  5000001  2    1    2    0    0 -1.8518450966e+01 +2.0815345350e+01 +7.4327093578e+02 1.2340892894e+03 9.8475808125e+02 0.0000e+00 0.0000e+00
  5000521  1    3    3    0    0 +1.7611602847e+02 +2.4175154524e+01 -2.0180494975e+02 2.6912177786e+02 1.0000000000e+01 0.0000e+00 1.0000e+00
 -5000521  1    3    3    0    0 -1.9463447943e+02 -3.3598091739e+00 +9.4507588552e+02 9.6496751153e+02 1.0000000000e+01 0.0000e+00 -1.0000e+00
       21  1    1    2  502  501 +1.8518450966e+01 -2.0815345350e+01 -1.0992453212e+01 2.9950720456e+01 0.0000000000e+00 0.0000e+00 -1.0000e+00
<mgrwt>
<rscale>  1 0.98515212E+03</rscale>
<asrwt>0</asrwt>
<pdfrwt beam="1">  1        4 0.40904733E-01 0.98515212E+03</pdfrwt>
<pdfrwt beam="2">  1       -4 0.15356296E+00 0.98515212E+03</pdfrwt>
<totfact> 0.32336109E+00</totfact>
</mgrwt>
</event>
<event>
 6      1 +3.0741590e+01 1.00406800e+03 7.81860800e-03 9.30409400e-02
        1 -1    0    0  502    0 -0.0000000000e+00 +0.0000000000e+00 +2.3907256555e+03 2.3907256555e+03 0.0000000000e+00 0.0000e+00 1.0000e+00
       21 -1    0    0  501  502 +0.0000000000e+00 -0.0000000000e+00 -1.6836118983e+02 1.6836118983e+02 0.0000000000e+00 0.0000e+00 -1.0000e+00
  5000001  2    1    2    0    0 -3.2251969141e+01 +1.0663196737e+02 +2.2318248417e+03 2.4472831571e+03 9.9786880965e+02 0.0000e+00 0.0000e+00
  5000521  1    3    3    0    0 +1.8570778075e+02 -3.3170098169e+02 +4.0320297466e+02 5.5424323168e+02 1.0000000000e+01 0.0000e+00 -1.0000e+00
 -5000521  1    3    3    0    0 -2.1795974989e+02 +4.3833294907e+02 +1.8286218670e+03 1.8930399254e+03 1.0000000000e+01 0.0000e+00 1.0000e+00
        1  1    1    2  501    0 +3.2251969141e+01 -1.0663196737e+02 -9.4603760155e+00 1.1180368819e+02 0.0000000000e+00 0.0000e+00 1.0000e+00
<mgrwt>
<rscale>  1 0.10040681E+04</rscale>
<asrwt>0</asrwt>
<pdfrwt beam="1">  1       21 0.25901723E-01 0.10040681E+04</pdfrwt>
<pdfrwt beam="2">  1        1 0.36780392E+00 0.10040681E+04</pdfrwt>
<totfact> 0.23636226E+02</totfact>
</mgrwt>
</event>
<event>
 6      1 +3.0741590e+01 1.05851300e+03 7.81860800e-03 9.24659900e-02
        1 -1    0    0  502    0 +0.0000000000e+00 +0.0000000000e+00 +1.8060340511e+03 1.8060340511e+03 0.0000000000e+00 0.0000e+00 1.0000e+00
       -1 -1    0    0    0  501 -0.0000000000e+00 -0.0000000000e+00 -3.0034690344e+02 3.0034690344e+02 0.0000000000e+00 0.0000e+00 -1.0000e+00
  5000001  2    1    2    0    0 -3.4525695757e+02 +1.0485850789e+02 +1.3445213849e+03 1.7111948256e+03 9.9511421616e+02 0.0000e+00 0.0000e+00
  5000521  1    3    3    0    0 -2.3624002422e+02 -3.9417611358e+02 +3.0134993606e+02 5.4963255137e+02 1.0000000000e+01 0.0000e+00 -1.0000e+00
 -5000521  1    3    3    0    0 -1.0901693334e+02 +4.9903462147e+02 +1.0431714488e+03 1.1615622742e+03 1.0000000000e+01 0.0000e+00 1.0000e+00
       21  1    1    2  502  501 +3.4525695757e+02 -1.0485850789e+02 +1.6116576273e+02 3.9518612894e+02 0.0000000000e+00 0.0000e+00 1.0000e+00
<mgrwt>
<rscale>  1 0.10585131E+04</rscale>
<asrwt>0</asrwt>
<pdfrwt beam="1">  1        1 0.27785139E+00 0.10585131E+04</pdfrwt>
<pdfrwt beam="2">  1       -1 0.46207217E-01 0.10585131E+04</pdfrwt>
<totfact> 0.18854613E+01</totfact>
</mgrwt>
</event>
<event>
 6      1 +3.0741590e+01 9.97511700e+02 7.81860800e-03 9.31127800e-02
        1 -1    0    0  502    0 +0.0000000000e+00 +0.0000000000e+00 +2.1168716606e+02 2.1168716606e+02 0.0000000000e+00 0.0000e+00 -1.0000e+00
       -1 -1    0    0    0  501 -0.0000000000e+00 -0.0000000000e+00 -1.3934201143e+03 1.3934201143e+03 0.0000000000e+00 0.0000e+00 1.0000e+00
  5000001  2    1    2    0    0 -2.0783250482e+01 -8.6754423224e+00 -9.6730347577e+02 1.3894983625e+03 9.9725747845e+02 0.0000e+00 0.0000e+00
  5000521  1    3    3    0    0 +4.0497175086e+01 -1.5617751455e+02 -1.1415333905e+03 1.1529223386e+03 1.0000000000e+01 0.0000e+00 1.0000e+00
 -5000521  1    3    3    0    0 -6.1280425568e+01 +1.4750207223e+02 +1.7422991475e+02 2.3657602386e+02 1.0000000000e+01 0.0000e+00 -1.0000e+00
       21  1    1    2  502  501 +2.0783250482e+01 +8.6754423224e+00 -2.1442947249e+02 2.1560891789e+02 0.0000000000e+00 0.0000e+00 -1.0000e+00
<mgrwt>
<rscale>  1 0.99751175E+03</rscale>
<asrwt>0</asrwt>
<pdfrwt beam="1">  1        1 0.32567258E-01 0.99751175E+03</pdfrwt>
<pdfrwt beam="2">  1       -1 0.21437231E+00 0.99751175E+03</pdfrwt>
<totfact> 0.16681954E+01</totfact>
</mgrwt>
</event>
<event>
 6      1 +3.0741590e+01 8.83409300e+02 7.81860800e-03 9.44656200e-02
        2 -1    0    0  502    0 +0.0000000000e+00 +0.0000000000e+00 +3.9233776848e+02 3.9233776848e+02 0.0000000000e+00 0.0000e+00 1.0000e+00
       -2 -1    0    0    0  501 -0.0000000000e+00 -0.0000000000e+00 -7.9585388480e+02 7.9585388480e+02 0.0000000000e+00 0.0000e+00 -1.0000e+00
  5000001  2    1    2    0    0 -4.5022584982e+01 +1.6790750476e+01 -1.0937843064e+02 8.9015484247e+02 8.8210149077e+02 0.0000e+00 0.0000e+00
  5000521  1    3    3    0    0 +4.0371856539e+02 +1.2283032933e+02 -5.8690819680e+01 4.2616966358e+02 1.0000000000e+01 0.0000e+00 1.0000e+00
 -5000521  1    3    3    0    0 -4.4874115037e+02 -1.0603957886e+02 -5.0687610959e+01 4.6398517889e+02 1.0000000000e+01 0.0000e+00 -1.0000e+00
       21  1    1    2  502  501 +4.5022584982e+01 -1.6790750476e+01 -2.9413768568e+02 2.9803681081e+02 0.0000000000e+00 0.0000e+00 1.0000e+00
<mgrwt>
<rscale>  1 0.88340931E+03</rscale>
<asrwt>0</asrwt>
<pdfrwt beam="1">  1        2 0.60359657E-01 0.88340931E+03</pdfrwt>
<pdfrwt beam="2">  1       -2 0.12243906E+00 0.88340931E+03</pdfrwt>
<totfact> 0.41174284E+01</totfact>
</mgrwt>
</event>
<event>
 6      1 +3.0741590e+01 9.95584100e+02 7.81860800e-03 9.31340100e-02
       -1 -1    0    0    0  501 -0.0000000000e+00 +0.0000000000e+00 +3.8541821241e+02 3.8541821241e+02 0.0000000000e+00 0.0000e+00 -1.0000e+00
        1 -1    0    0  502    0 +0.0000000000e+00 -0.0000000000e+00 -8.9491410937e+02 8.9491410937e+02 0.0000000000e+00 0.0000e+00 1.0000e+00
  5000001  2    1    2    0    0 -2.8242504645e+01 +7.0969830014e+00 -2.5977229410e+02 1.0289165624e+03 9.9515809868e+02 0.0000e+00 0.0000e+00
  5000521  1    3    3    0    0 -4.1098404817e+02 -1.8023291016e+02 +1.1275630268e+02 4.6282369596e+02 1.0000000000e+01 0.0000e+00 -1.0000e+00
 -5000521  1    3    3    0    0 +3.8274154352e+02 +1.8732989316e+02 -3.7252859678e+02 5.6609286644e+02 1.0000000000e+01 0.0000e+00 1.0000e+00
       21  1    1    2  502  501 +2.8242504645e+01 -7.0969830014e+00 -2.4972360286e+02 2.5141575937e+02 0.0000000000e+00 0.0000e+00 1.0000e+00
<mgrwt>
<rscale>  1 0.99558407E+03</rscale>
<asrwt>0</asrwt>
<pdfrwt beam="1">  1        1 0.13767909E+00 0.99558407E+03</pdfrwt>
<pdfrwt beam="2">  1       -1 0.59295110E-01 0.99558407E+03</pdfrwt>
<totfact> 0.53128247E+01</totfact>
</mgrwt>
</event>
<event>
 6      1 +3.0741590e+01 1.01075300e+03 7.81860800e-03 9.29682900e-02
       -2 -1    0    0    0  501 -0.0000000000e+00 +0.0000000000e+00 +2.9468804024e+02 2.9468804024e+02 0.0000000000e+00 0.0000e+00 1.0000e+00
        2 -1    0    0  502    0 +0.0000000000e+00 -0.0000000000e+00 -1.0028574676e+03 1.0028574676e+03 0.0000000000e+00 0.0000e+00 -1.0000e+00
  5000001  2    1    2    0    0 +6.0642602354e+01 +4.6634266254e+01 -6.5838667185e+02 1.2062733721e+03 1.0078542348e+03 0.0000e+00 0.0000e+00
  5000521  1    3    3    0    0 -1.7777528486e+02 +4.8040793864e+02 -2.8587591461e+02 5.8670339863e+02 1.0000000000e+01 0.0000e+00 -1.0000e+00
 -5000521  1    3    3    0    0 +2.3841788721e+02 -4.3377367238e+02 -3.7251075723e+02 6.1956997349e+02 1.0000000000e+01 0.0000e+00 1.0000e+00
       21  1    1    2  502  501 -6.0642602354e+01 -4.6634266254e+01 -4.9782755474e+01 9.1272135681e+01 0.0000000000e+00 0.0000e+00 1.0000e+00
<mgrwt>
<rscale>  1 0.10107534E+04</rscale>
<asrwt>0</asrwt>
<pdfrwt beam="1">  1        2 0.15428577E+00 0.10107534E+04</pdfrwt>
<pdfrwt beam="2">  1       -2 0.45336621E-01 0.10107534E+04</pdfrwt>
<totfact> 0.11537720E+02</totfact>
</mgrwt>
</event>
<event>
 6      1 +3.0741590e+01 9.95569900e+02 7.81860800e-03 9.31341700e-02
        2 -1    0    0  502    0 +0.0000000000e+00 +0.0000000000e+00 +2.1234879782e+03 2.1234879782e+03 0.0000000000e+00 0.0000e+00 1.0000e+00
       -2 -1    0    0    0  501 -0.0000000000e+00 -0.0000000000e+00 -1.4767219667e+02 1.4767219667e+02 0.0000000000e+00 0.0000e+00 -1.0000e+00
  5000001  2    1    2    0    0 +2.9733440359e+01 +2.6195682824e+01 +1.9931095955e+03 2.2279239946e+03 9.9478096827e+02 0.0000e+00 0.0000e+00
  5000521  1    3    3    0    0 +1.9349703593e+01 +2.7286074919e-01 -1.1629169207e+02 1.1831417128e+02 1.0000000000e+01 0.0000e+00 -1.0000e+00
 -5000521  1    3    3    0    0 +1.0383736766e+01 +2.5922822074e+01 +2.1094012876e+03 2.1096098234e+03 1.0000000000e+01 0.0000e+00 1.0000e+00
       21  1    1    2  502  501 -2.9733440359e+01 -2.6195682824e+01 -1.7293814037e+01 4.3236180198e+01 0.0000000000e+00 0.0000e+00 -1.0000e+00
<mgrwt>
<rscale>  1 0.99556992E+03</rscale>
<asrwt>0</asrwt>
<pdfrwt beam="1">  1        2 0.32669044E+00 0.99556992E+03</pdfrwt>
<pdfrwt beam="2">  1       -2 0.22718801E-01 0.99556992E+03</pdfrwt>
<totfact> 0.97605113E+01</totfact>
</mgrwt>
</event>
<event>
 6      1 +3.0741590e+01 1.02134300e+03 7.81860800e-03 9.28544100e-02
        2 -1    0    0  502    0 +0.0000000000e+00 +0.0000000000e+00 +7.1106346747e+02 7.1106346747e+02 0.0000000000e+00 0.0000e+00 1.0000e+00
       -2 -1    0    0    0  501 -0.0000000000e+00 -0.0000000000e+00 -6.1118895411e+02 6.1118895411e+02 0.0000000000e+00 0.0000e+00 -1.0000e+00
  5000001  2    1    2    0    0 +8.4739147183e+00 +7.2307128355e+01 +3.3597377365e+02 1.0751836280e+03 1.0187449776e+03 0.0000e+00 0.0000e+00
  5000521  1    3    3    0    0 +4.9683470073e+02 +1.4611163500e+02 +9.9277959125e+01 5.2739875132e+02 1.0000000000e+01 0.0000e+00 -1.0000e+00
 -5000521  1    3    3    0    0 -4.8836078601e+02 -7.3804506641e+01 +2.3669581453e+02 5.4778487669e+02 1.0000000000e+01 0.0000e+00 1.0000e+00
       21  1    1    2  502  501 -8.4739147183e+00 -7.2307128355e+01 -2.3609926029e+02 2.4706879356e+02 0.0000000000e+00 0.0000e+00 -1.0000e+00
<mgrwt>
<rscale>  1 0.10213430E+04</rscale>
<asrwt>0</asrwt>
<pdfrwt beam="1">  1        2 0.10939438E+00 0.10213430E+04</pdfrwt>
<pdfrwt beam="2">  1       -2 0.94029069E-01 0.10213430E+04</pdfrwt>
<totfact> 0.38131597E+01</totfact>
</mgrwt>
</event>
<event>
 6      1 +3.0741590e+01 9.97183800e+02 7.81860800e-03 9.31163900e-02
       -2 -1    0    0    0  501 -0.0000000000e+00 +0.0000000000e+00 +2.9766705413e+02 2.9766705413e+02 0.0000000000e+00 0.0000e+00 -1.0000e+00
        2 -1    0    0  502    0 +0.0000000000e+00 -0.0000000000e+00 -9.7174317243e+02 9.7174317243e+02 0.0000000000e+00 0.0000e+00 1.0000e+00
  5000001  2    1    2    0    0 +1.7462124697e+01 -2.4049449384e+01 -5.4387256565e+02 1.1358577390e+03 9.9674075552e+02 0.0000e+00 0.0000e+00
  5000521  1    3    3    0    0 -4.7289263483e+02 -9.1617781917e+01 -3.8239819270e+02 6.1510132484e+02 1.0000000000e+01 0.0000e+00 1.0000e+00
 -5000521  1    3    3    0    0 +4.9035475953e+02 +6.7568332533e+01 -1.6147437295e+02 5.2075641414e+02 1.0000000000e+01 0.0000e+00 -1.0000e+00
       21  1    1    2  502  501 -1.7462124697e+01 +2.4049449384e+01 -1.3020355266e+02 1.3355248758e+02 0.0000000000e+00 0.0000e+00 -1.0000e+00
<mgrwt>
<rscale>  1 0.99718375E+03</rscale>
<asrwt>0</asrwt>
<pdfrwt beam="1">  1        2 0.14949895E+00 0.99718375E+03</pdfrwt>
<pdfrwt beam="2">  1       -2 0.45794931E-01 0.99718375E+03</pdfrwt>
<totfact> 0.11853036E+02</totfact>
</mgrwt>
</event>
<event>
 6      1 +3.0741590e+01 9.96448500e+02 7.81860800e-03 9.31244900e-02
       21 -1    0    0  501  502 +0.0000000000e+00 +0.0000000000e+00 +1.1427070835e+02 1.1427070835e+02 0.0000000000e+00 0.0000e+00 1.0000e+00
        1 -1    0    0  502    0 -0.0000000000e+00 -0.0000000000e+00 -3.7503567292e+03 3.7503567292e+03 0.0000000000e+00 0.0000e+00 1.0000e+00
  5000001  2    1    2    0    0 -2.1170285329e+01 -6.1601040631e+01 -3.6615313781e+03 3.7946965046e+03 9.9431718292e+02 0.0000e+00 0.0000e+00
  5000521  1    3    3    0    0 -7.8707231179e+01 +2.9356516826e+02 -3.4996965424e+02 4.6363142165e+02 1.0000000000e+01 0.0000e+00 -1.0000e+00
 -5000521  1    3    3    0    0 +5.7536945849e+01 -3.5516620890e+02 -3.3115617238e+03 3.3310650829e+03 1.0000000000e+01 0.0000e+00 1.0000e+00
        1  1    1    2  501    0 +2.1170285329e+01 +6.1601040631e+01 +2.5445357176e+01 6.9930932995e+01 0.0000000000e+00 0.0000e+00 1.0000e+00
<mgrwt>
<rscale>  1 0.99644846E+03</rscale>
<asrwt>0</asrwt>
<pdfrwt beam="1">  1       21 0.17580108E-01 0.99644846E+03</pdfrwt>
<pdfrwt beam="2">  1        1 0.57697800E+00 0.99644846E+03</pdfrwt>
<totfact> 0.50344600E+01</totfact>
</mgrwt>
</event>
<event>
 6      1 +3.0741590e+01 1.02210300e+03 7.81860800e-03 9.28462900e-02
        2 -1    0    0  502    0 +0.0000000000e+00 +0.0000000000e+00 +1.4922222837e+03 1.4922222837e+03 0.0000000000e+00 0.0000e+00 -1.0000e+00
       -2 -1    0    0    0  501 -0.0000000000e+00 -0.0000000000e+00 -4.7163530675e+02 4.7163530675e+02 0.0000000000e+00 0.0000e+00 1.0000e+00
  5000001  2    1    2    0    0 -1.8332230442e+02 -1.8167985952e+02 +1.2526771380e+03 1.6167546063e+03 9.8897967941e+02 0.0000e+00 0.0000e+00
  5000521  1    3    3    0    0 +2.9217009560e+02 -3.5570233969e+02 +3.3775901215e+02 5.7102422848e+02 1.0000000000e+01 0.0000e+00 1.0000e+00
 -5000521  1    3    3    0    0 -4.7549240002e+02 +1.7402248017e+02 +9.1491812589e+02 1.0457303779e+03 1.0000000000e+01 0.0000e+00 -1.0000e+00
       21  1    1    2  502  501 +1.8332230442e+02 +1.8167985952e+02 -2.3209016114e+02 3.4710298407e+02 0.0000000000e+00 0.0000e+00 1.0000e+00
<mgrwt>
<rscale>  1 0.10221034E+04</rscale>
<asrwt>0</asrwt>
<pdfrwt beam="1">  1        2 0.22957266E+00 0.10221034E+04</pdfrwt>
<pdfrwt beam="2">  1       -2 0.72559279E-01 0.10221034E+04</pdfrwt>
<totfact> 0.21936045E+01</totfact>
</mgrwt>
</event>
<event>
 6      1 +3.0741590e+01 8.93632500e+02 7.81860800e-03 9.43357600e-02
       -1 -1    0    0    0  501 -0.0000000000e+00 +0.0000000000e+00 +4.3632028158e+02 4.3632028158e+02 0.0000000000e+00 0.0000e+00 -1.0000e+00
        1 -1    0    0  502    0 +0.0000000000e+00 -0.0000000000e+00 -1.2157032021e+03 1.2157032021e+03 0.0000000000e+00 0.0000e+00 1.0000e+00
  5000001  2    1    2    0    0 -3.3569870329e+01 +1.7811551782e+02 -4.4088870183e+01 8.9471944015e+02 8.7505826904e+02 0.0000e+00 0.0000e+00
  5000521  1    3    3    0    0 -2.8134683098e+02 +4.4589772864e+02 -5.0054292890e+01 5.2970393235e+02 1.0000000000e+01 0.0000e+00 1.0000e+00
 -5000521  1    3    3    0    0 +2.4777696065e+02 -2.6778221082e+02 +5.9654227070e+00 3.6501550779e+02 1.0000000000e+01 0.0000e+00 -1.0000e+00
       21  1    1    2  502  501 +3.3569870329e+01 -1.7811551782e+02 -7.3529405032e+02 7.5730404351e+02 0.0000000000e+00 0.0000e+00 -1.0000e+00
<mgrwt>
<rscale>  1 0.89363250E+03</rscale>
<asrwt>0</asrwt>
<pdfrwt beam="1">  1        1 0.18703126E+00 0.89363250E+03</pdfrwt>
<pdfrwt beam="2">  1       -1 0.67126199E-01 0.89363250E+03</pdfrwt>
<totfact> 0.23724043E+01</totfact>
</mgrwt>
</event>
<event>
 6      1 +3.0741590e+01 9.98860800e+02 7.81860800e-03 9.30979500e-02
       -1 -1    0    0    0  501 -0.0000000000e+00 +0.0000000000e+00 +2.8901118135e+02 2.8901118135e+02 0.0000000000e+00 0.0000e+00 -1.0000e+00
        1 -1    0    0  502    0 +0.0000000000e+00 -0.0000000000e+00 -9.2667564078e+02 9.2667564078e+02 0.0000000000e+00 0.0000e+00 1.0000e+00
  5000001  2    1    2    0    0 -2.9261708001e+01 -2.1055391613e+01 -6.1871724583e+02 1.1749612285e+03 9.9821003861e+02 0.0000e+00 0.0000e+00
  5000521  1    3    3    0    0 -4.4720263917e+02 -2.0124746035e+02 -5.0861129814e+02 7.0659478726e+02 1.0000000000e+01 0.0000e+00 -1.0000e+00
 -5000521  1    3    3    0    0 +4.1794093117e+02 +1.8019206873e+02 -1.1010594768e+02 4.6836644126e+02 1.0000000000e+01 0.0000e+00 1.0000e+00
       21  1    1    2  502  501 +2.9261708001e+01 +2.1055391613e+01 -1.8947213606e+01 4.0725593606e+01 0.0000000000e+00 0.0000e+00 -1.0000e+00
<mgrwt>
<rscale>  1 0.99886078E+03</rscale>
<asrwt>0</asrwt>
<pdfrwt beam="1">  1        1 0.14256548E+00 0.99886078E+03</pdfrwt>
<pdfrwt beam="2">  1       -1 0.44463258E-01 0.99886078E+03</pdfrwt>
<totfact> 0.86863059E+01</totfact>
</mgrwt>
</event>
<event>
 6      1 +3.0741590e+01 9.97464900e+02 7.81860800e-03 9.31133000e-02
       -2 -1    0    0    0  501 -0.0000000000e+00 +0.0000000000e+00 +1.7429598386e+02 1.7429598386e+02 0.0000000000e+00 0.0000e+00 -1.0000e+00
        2 -1    0    0  502    0 +0.0000000000e+00 -0.0000000000e+00 -1.4962575639e+03 1.4962575639e+03 0.0000000000e+00 0.0000e+00 1.0000e+00
  5000001  2    1    2    0    0 +2.2231087192e+01 -6.8307032612e+00 -1.2998931648e+03 1.6384927509e+03 9.9719375001e+02 0.0000e+00 0.0000e+00
  5000521  1    3    3    0    0 -1.3560022554e+02 +3.5552825050e+02 -1.2781450680e+02 4.0152746633e+02 1.0000000000e+01 0.0000e+00 -1.0000e+00
 -5000521  1    3    3    0    0 +1.5783131273e+02 -3.6235895376e+02 -1.1720786580e+03 1.2369652846e+03 1.0000000000e+01 0.0000e+00 1.0000e+00
       21  1    1    2  502  501 -2.2231087192e+01 +6.8307032612e+00 -2.2068415206e+01 3.2060796848e+01 0.0000000000e+00 0.0000e+00 -1.0000e+00
<mgrwt>
<rscale>  1 0.99746491E+03</rscale>
<asrwt>0</asrwt>
<pdfrwt beam="1">  1        2 0.23019347E+00 0.99746491E+03</pdfrwt>
<pdfrwt beam="2">  1       -2 0.26814766E-01 0.99746491E+03</pdfrwt>
<totfact> 0.16067348E+02</totfact>
</mgrwt>
</event>
<event>
 6      1 +3.0741590e+01 1.00599600e+03 7.81860800e-03 9.30199300e-02
        1 -1    0    0  502    0 +0.0000000000e+00 +0.0000000000e+00 +2.0988131382e+02 2.0988131382e+02 0.0000000000e+00 0.0000e+00 1.0000e+00
       -1 -1    0    0    0  501 -0.0000000000e+00 -0.0000000000e+00 -2.1008580733e+03 2.1008580733e+03 0.0000000000e+00 0.0000e+00 -1.0000e+00
  5000001  2    1    2    0    0 +3.6060152951e+01 +2.9517071405e+01 -1.9739844255e+03 2.2155455599e+03 1.0049159288e+03 0.0000e+00 0.0000e+00
  5000521  1    3    3    0    0 +2.4771002392e+02 -3.8920553801e+02 -5.5949448402e+02 7.2524153522e+02 1.0000000000e+01 0.0000e+00 1.0000e+00
 -5000521  1    3    3    0    0 -2.1164987097e+02 +4.1872260941e+02 -1.4144899415e+03 1.4903040247e+03 1.0000000000e+01 0.0000e+00 -1.0000e+00
       21  1    1    2  502  501 -3.6060152951e+01 -2.9517071405e+01 +8.3007665963e+01 9.5193827236e+01 0.0000000000e+00 0.0000e+00 -1.0000e+00
<mgrwt>
<rscale>  1 0.10059958E+04</rscale>
<asrwt>0</asrwt>
<pdfrwt beam="1">  1        1 0.32289433E-01 0.10059958E+04</pdfrwt>
<pdfrwt beam="2">  1       -1 0.32320894E+00 0.10059958E+04</pdfrwt>
<totfact> 0.33125310E+00</totfact>
</mgrwt>
</event>
<event>
 6      1 +3.0741590e+01 1.00099900e+03 7.81860800e-03 9.30745000e-02
       -2 -1    0    0    0  501 -0.0000000000e+00 +0.0000000000e+00 +4.8041616533e+02 4.8041616533e+02 0.0000000000e+00 0.0000e+00 1.0000e+00
        2 -1    0    0  502    0 +0.0000000000e+00 -0.0000000000e+00 -6.1270941822e+02 6.1270941822e+02 0.0000000000e+00 0.0000e+00 -1.0000e+00
  5000001  2    1    2    0    0 +3.6596572682e+01 -2.4850615127e+01 -5.3089266503e+01 1.0024054994e+03 1.0000207262e+03 0.0000e+00 0.0000e+00
  5000521  1    3    3    0    0 +1.5627864988e+02 +1.4730424510e+02 -4.8040475663e+02 5.2631766760e+02 1.0000000000e+01 0.0000e+00 -1.0000e+00
 -5000521  1    3    3    0    0 -1.1968207720e+02 -1.7215486023e+02 +4.2731549013e+02 4.7608783182e+02 1.0000000000e+01 0.0000e+00 1.0000e+00
       21  1    1    2  502  501 -3.6596572682e+01 +2.4850615127e+01 -7.9203986385e+01 9.0720084125e+01 0.0000000000e+00 0.0000e+00 1.0000e+00
<mgrwt>
<rscale>  1 0.10009987E+04</rscale>
<asrwt>0</asrwt>
<pdfrwt beam="1">  1        2 0.94262987E-01 0.10009987E+04</pdfrwt>
<pdfrwt beam="2">  1       -2 0.73910179E-01 0.10009987E+04</pdfrwt>
<totfact> 0.79604917E+01</totfact>
</mgrwt>
</event>
<event>
 6      1 +3.0741590e+01 1.01510700e+03 7.81860800e-03 9.29212900e-02
       -1 -1    0    0    0  501 -0.0000000000e+00 +0.0000000000e+00 +1.0285425048e+03 1.0285425048e+03 0.0000000000e+00 0.0000e+00 -1.0000e+00
        1 -1    0    0  502    0 +0.0000000000e+00 -0.0000000000e+00 -3.7562512093e+02 3.7562512093e+02 0.0000000000e+00 0.0000e+00 1.0000e+00
  5000001  2    1    2    0    0 -1.9462353744e+02 -3.1120348760e+01 +4.1873028983e+02 1.0980787621e+03 9.9578868979e+02 0.0000e+00 0.0000e+00
  5000521  1    3    3    0    0 -2.7067786229e+02 -1.7236438766e+02 -2.5213644485e+02 4.0822637603e+02 1.0000000000e+01 0.0000e+00 1.0000e+00
 -5000521  1    3    3    0    0 +7.6054324849e+01 +1.4124403890e+02 +6.7086673468e+02 6.8985238606e+02 1.0000000000e+01 0.0000e+00 -1.0000e+00
       21  1    1    2  502  501 +1.9462353744e+02 +3.1120348760e+01 +2.3418709405e+02 3.0608886365e+02 0.0000000000e+00 0.0000e+00 1.0000e+00
<mgrwt>
<rscale>  1 0.10151068E+04</rscale>
<asrwt>0</asrwt>
<pdfrwt beam="1">  1        1 0.57788481E-01 0.10151068E+04</pdfrwt>
<pdfrwt beam="2">  1       -1 0.15823731E+00 0.10151068E+04</pdfrwt>
<totfact> 0.19701868E+01</totfact>
</mgrwt>
</event>
<event>
 6      1 +3.0741590e+01 9.96119900e+02 7.81860800e-03 9.31281100e-02
       -1 -1    0    0    0  501 -0.0000000000e+00 +0.0000000000e+00 +1.9339262345e+03 1.9339262345e+03 0.0000000000e+00 0.0000e+00 -1.0000e+00
        1 -1    0    0  502    0 +0.0000000000e+00 -0.0000000000e+00 -1.5879266742e+02 1.5879266742e+02 0.0000000000e+00 0.0000e+00 1.0000e+00
  5000001  2    1    2    0    0 +1.4968051576e+01 -7.4240482759e+01 +1.4520771548e+03 1.7609039876e+03 9.9323667783e+02 0.0000e+00 0.0000e+00
  5000521  1    3    3    0    0 +1.0365080745e+02 +3.7331680740e+02 +2.1694236586e+02 4.4415416093e+02 1.0000000000e+01 0.0000e+00 1.0000e+00
 -5000521  1    3    3    0    0 -8.8682755873e+01 -4.4755729016e+02 +1.2351347889e+03 1.3167498266e+03 1.0000000000e+01 0.0000e+00 -1.0000e+00
       21  1    1    2  502  501 -1.4968051576e+01 +7.4240482759e+01 +3.2305641234e+02 3.3181491438e+02 0.0000000000e+00 0.0000e+00 -1.0000e+00
<mgrwt>
<rscale>  1 0.99611987E+03</rscale>
<asrwt>0</asrwt>
<pdfrwt beam="1">  1        1 0.24429642E-01 0.99611987E+03</pdfrwt>
<pdfrwt beam="2">  1       -1 0.29752710E+00 0.99611987E+03</pdfrwt>
<totfact> 0.70011503E+00</totfact>
</mgrwt>
</event>
<event>
 6      1 +3.0741590e+01 1.00221200e+03 7.81860800e-03 9.30612200e-02
       -2 -1    0    0    0  501 -0.0000000000e+00 +0.0000000000e+00 +3.4846999926e+02 3.4846999926e+02 0.0000000000e+00 0.0000e+00 1.0000e+00
        2 -1    0    0  502    0 +0.0000000000e+00 -0.0000000000e+00 -8.0359534130e+02 8.0359534130e+02 0.0000000000e+00 0.0000e+00 -1.0000e+00
  5000001  2    1    2    0    0 +1.2975095933e+01 +3.0359989439e+01 -3.8328903891e+02 1.0730050059e+03 1.0016681952e+03 0.0000e+00 0.0000e+00
  5000521  1    3    3    0    0 -1.9083217753e+02 +2.3060135025e+02 -6.2859673304e+02 6.9629573854e+02 1.0000000000e+01 0.0000e+00 -1.0000e+00
 -5000521  1    3    3    0    0 +2.0380727347e+02 -2.0024136081e+02 +2.4530769413e+02 3.7670926734e+02 1.0000000000e+01 0.0000e+00 1.0000e+00
       21  1    1    2  502  501 -1.2975095933e+01 -3.0359989439e+01 -7.1836303131e+01 7.9060334687e+01 0.0000000000e+00 0.0000e+00 -1.0000e+00
<mgrwt>
<rscale>  1 0.10022122E+04</rscale>
<asrwt>0</asrwt>
<pdfrwt beam="1">  1        2 0.12363005E+00 0.10022122E+04</pdfrwt>
<pdfrwt beam="2">  1       -2 0.53610770E-01 0.10022122E+04</pdfrwt>
<totfact> 0.11203810E+02</totfact>
</mgrwt>
</event>
<event>
 6      1 +3.0741590e+01 1.02420400e+03 7.81860800e-03 9.28238900e-02
        1 -1    0    0  502    0 +0.0000000000e+00 +0.0000000000e+00 +1.6528051305e+03 1.6528051305e+03 0.0000000000e+00 0.0000e+00 1.0000e+00
       -1 -1    0    0    0  501 -0.0000000000e+00 -0.0000000000e+00 -2.5823365258e+02 2.5823365258e+02 0.0000000000e+00 0.0000e+00 -1.0000e+00
  5000001  2    1    2    0    0 -1.0282716448e+02 -2.4048025387e+02 +1.2358953202e+03 1.6051265386e+03 9.9024733494e+02 0.0000e+00 0.0000e+00
  5000521  1    3    3    0    0 +3.1115785175e+02 -1.3428803761e+02 +1.1082795957e+03 1.1589806504e+03 1.0000000000e+01 0.0000e+00 1.0000e+00
 -5000521  1    3    3    0    0 -4.1398501623e+02 -1.0619221627e+02 +1.2761572447e+02 4.4614588824e+02 1.0000000000e+01 0.0000e+00 -1.0000e+00
       21  1    1    2  502  501 +1.0282716448e+02 +2.4048025387e+02 +1.5867615774e+02 3.0591224443e+02 0.0000000000e+00 0.0000e+00 -1.0000e+00
<mgrwt>
<rscale>  1 0.10242041E+04</rscale>
<asrwt>0</asrwt>
<pdfrwt beam="1">  1        1 0.25427771E+00 0.10242041E+04</pdfrwt>
<pdfrwt beam="2">  1       -1 0.39728255E-01 0.10242041E+04</pdfrwt>
<totfact> 0.31785371E+01</totfact>
</mgrwt>
</event>
<event>
 6      1 +3.0741590e+01 9.95851300e+02 7.81860800e-03 9.31310700e-02
        1 -1    0    0  502    0 -0.0000000000e+00 +0.0000000000e+00 +6.1650151901e+02 6.1650151901e+02 0.0000000000e+00 0.0000e+00 1.0000e+00
       21 -1    0    0  501  502 +0.0000000000e+00 -0.0000000000e+00 -1.0523776907e+03 1.0523776907e+03 0.0000000000e+00 0.0000e+00 -1.0000e+00
  5000001  2    1    2    0    0 +7.2959669001e+00 -2.1314101660e+01 +2.1402273787e+02 1.0185899551e+03 9.9559642534e+02 0.0000e+00 0.0000e+00
  5000521  1    3    3    0    0 -1.6507048676e+02 -3.7909979034e+02 +4.0405756233e+02 5.7821054151e+02 1.0000000000e+01 0.0000e+00 1.0000e+00
 -5000521  1    3    3    0    0 +1.7236645366e+02 +3.5778568868e+02 -1.9003482446e+02 4.4037941355e+02 1.0000000000e+01 0.0000e+00 -1.0000e+00
        1  1    1    2  501    0 -7.2959669001e+00 +2.1314101660e+01 -6.4989890959e+02 6.5028925468e+02 0.0000000000e+00 0.0000e+00 1.0000e+00
<mgrwt>
<rscale>  1 0.99585128E+03</rscale>
<asrwt>0</asrwt>
<pdfrwt beam="1">  1       21 0.16190426E+00 0.99585128E+03</pdfrwt>
<pdfrwt beam="2">  1        1 0.94846387E-01 0.99585128E+03</pdfrwt>
<totfact> 0.69084089E+01</totfact>
</mgrwt>
</event>
<event>
 6      1 +3.0741590e+01 1.05917800e+03 7.81860800e-03 9.24591900e-02
       -1 -1    0    0    0  501 -0.0000000000e+00 +0.0000000000e+00 +4.7152724834e+02 4.7152724834e+02 0.0000000000e+00 0.0000e+00 1.0000e+00
        1 -1    0    0  502    0 +0.0000000000e+00 -0.0000000000e+00 -1.0710225533e+03 1.0710225533e+03 0.0000000000e+00 0.0000e+00 -1.0000e+00
  5000001  2    1    2    0    0 +1.8404363299e+02 +2.9220141507e+02 -5.5070206142e+02 1.1937884127e+03 1.0013012974e+03 0.0000e+00 0.0000e+00
  5000521  1    3    3    0    0 -2.0140334996e+02 +2.7281443199e+02 -7.0157316812e+02 7.7929194395e+02 1.0000000000e+01 0.0000e+00 -1.0000e+00
 -5000521  1    3    3    0    0 +3.8544698296e+02 +1.9386983080e+01 +1.5087110670e+02 4.1449646877e+02 1.0000000000e+01 0.0000e+00 1.0000e+00
       21  1    1    2  502  501 -1.8404363299e+02 -2.9220141507e+02 -4.8793243579e+01 3.4876138897e+02 0.0000000000e+00 0.0000e+00 1.0000e+00
<mgrwt>
<rscale>  1 0.10591780E+04</rscale>
<asrwt>0</asrwt>
<pdfrwt beam="1">  1        1 0.16477270E+00 0.10591780E+04</pdfrwt>
<pdfrwt beam="2">  1       -1 0.72542655E-01 0.10591780E+04</pdfrwt>
<totfact> 0.25514439E+01</totfact>
</mgrwt>
</event>
<event>
 6      1 +3.0741590e+01 1.02798000e+03 7.81860800e-03 9.27837800e-02
        1 -1    0    0  502    0 +0.0000000000e+00 +0.0000000000e+00 +2.0589400520e+03 2.0589400520e+03 0.0000000000e+00 0.0000e+00 1.0000e+00
       -1 -1    0    0    0  501 -0.0000000000e+00 -0.0000000000e+00 -2.8242527453e+02 2.8242527453e+02 0.0000000000e+00 0.0000e+00 -1.0000e+00
  5000001  2    1    2    0    0 +2.4131115372e+02 +4.4455098933e+01 +7.1580564458e+02 1.2526453472e+03 9.9826615508e+02 0.0000e+00 0.0000e+00
  5000521  1    3    3    0    0 +6.1713000843e+01 +4.4375102924e+02 +6.7847938164e+02 8.1311606904e+02 1.0000000000e+01 0.0000e+00 1.0000e+00
 -5000521  1    3    3    0    0 +1.7959815287e+02 -3.9929593031e+02 +3.7326262941e+01 4.3952927818e+02 1.0000000000e+01 0.0000e+00 -1.0000e+00
       21  1    1    2  502  501 -2.4131115372e+02 -4.4455098933e+01 +1.0607091329e+03 1.0887199793e+03 0.0000000000e+00 0.0000e+00 1.0000e+00
<mgrwt>
<rscale>  1 0.10279799E+04</rscale>
<asrwt>0</asrwt>
<pdfrwt beam="1">  1        1 0.31676000E+00 0.10279799E+04</pdfrwt>
<pdfrwt beam="2">  1       -1 0.43450044E-01 0.10279799E+04</pdfrwt>
<totfact> 0.14325313E+01</totfact>
</mgrwt>
</event>
<event>
 6      1 +3.0741590e+01 1.00420900e+03 7.81860800e-03 9.30394000e-02
        1 -1    0    0  502    0 +0.0000000000e+00 +0.0000000000e+00 +3.6567437762e+02 3.6567437762e+02 0.0000000000e+00 0.0000e+00 1.0000e+00
       -1 -1    0    0    0  501 -0.0000000000e+00 -0.0000000000e+00 -7.4447054008e+02 7.4447054008e+02 0.0000000000e+00 0.0000e+00 -1.0000e+00
  5000001  2    1    2    0    0 +1.3579550918e+01 -1.7705028018e+01 -3.3092747766e+02 1.0573312528e+03 1.0039614088e+03 0.0000e+00 0.0000e+00
  5000521  1    3    3    0    0 -3.5081601044e+01 -3.2055506380e+02 +2.4475191601e+02 4.0495650143e+02 1.0000000000e+01 0.0000e+00 1.0000e+00
 -5000521  1    3    3    0    0 +4.8661151962e+01 +3.0285003578e+02 -5.7567939367e+02 6.5237475133e+02 1.0000000000e+01 0.0000e+00 -1.0000e+00
       21  1    1    2  502  501 -1.3579550918e+01 +1.7705028018e+01 -4.7868684796e+01 5.2813664940e+01 0.0000000000e+00 0.0000e+00 -1.0000e+00
<mgrwt>
<rscale>  1 0.10042093E+04</rscale>
<asrwt>0</asrwt>
<pdfrwt beam="1">  1        1 0.56257598E-01 0.10042093E+04</pdfrwt>
<pdfrwt beam="2">  1       -1 0.11453393E+00 0.10042093E+04</pdfrwt>
<totfact> 0.46982512E+01</totfact>
</mgrwt>
</event>
<event>
 6      1 +3.0741590e+01 9.92974300e+02 7.81860800e-03 9.31628400e-02
       -1 -1    0    0    0  501 -0.0000000000e+00 +0.0000000000e+00 +1.0558327948e+02 1.0558327948e+02 0.0000000000e+00 0.0000e+00 -1.0000e+00
        1 -1    0    0  502    0 +0.0000000000e+00 -0.0000000000e+00 -2.5091739465e+03 2.5091739465e+03 0.0000000000e+00 0.0000e+00 1.0000e+00
  5000001  2    1    2    0    0 +5.6035854533e+00 +2.0117416709e+01 -2.2449794150e+03 2.4547771025e+03 9.9275472238e+02 0.0000e+00 0.0000e+00
  5000521  1    3    3    0    0 -4.7736456964e+02 +1.2967881406e+02 -1.2150612302e+03 1.3119326660e+03 1.0000000000e+01 0.0000e+00 1.0000e+00
 -5000521  1    3    3    0    0 +4.8296815509e+02 -1.0956139735e+02 -1.0299181848e+03 1.1428444365e+03 1.0000000000e+01 0.0000e+00 -1.0000e+00
       21  1    1    2  502  501 -5.6035854533e+00 -2.0117416709e+01 -1.5861125211e+02 1.5998012352e+02 0.0000000000e+00 0.0000e+00 1.0000e+00
<mgrwt>
<rscale>  1 0.99297434E+03</rscale>
<asrwt>0</asrwt>
<pdfrwt beam="1">  1        1 0.38602673E+00 0.99297434E+03</pdfrwt>
<pdfrwt beam="2">  1       -1 0.16243583E-01 0.99297434E+03</pdfrwt>
<totfact> 0.39177258E+01</totfact>
</mgrwt>
</event>
<event>
 6      1 +3.0741590e+01 1.01282700e+03 7.81860800e-03 9.29458700e-02
       -1 -1    0    0    0  501 -0.0000000000e+00 +0.0000000000e+00 +6.4741873100e+02 6.4741873100e+02 0.0000000000e+00 0.0000e+00 1.0000e+00
       21 -1    0    0  501  502 +0.0000000000e+00 -0.0000000000e+00 -4.4493804757e+02 4.4493804757e+02 0.0000000000e+00 0.0000e+00 -1.0000e+00
  5000001  2    1    2    0    0 +2.7545894543e+01 +3.0349267120e+01 +2.3535797052e+02 1.0398137455e+03 1.0119977256e+03 0.0000e+00 0.0000e+00
  5000521  1    3    3    0    0 +1.7550948935e+02 +2.5789697299e+02 +5.4492866466e+02 6.2798222833e+02 1.0000000000e+01 0.0000e+00 1.0000e+00
 -5000521  1    3    3    0    0 -1.4796359481e+02 -2.2754770587e+02 -3.0957069414e+02 4.1183151713e+02 1.0000000000e+01 0.0000e+00 -1.0000e+00
       -1  1    1    2    0  502 -2.7545894543e+01 -3.0349267120e+01 -3.2877287089e+01 5.2543033099e+01 0.0000000000e+00 0.0000e+00 1.0000e+00
<mgrwt>
<rscale>  1 0.10128274E+04</rscale>
<asrwt>0</asrwt>
<pdfrwt beam="1">  1       21 0.68452007E-01 0.10128274E+04</pdfrwt>
<pdfrwt beam="2">  1       -1 0.99602882E-01 0.10128274E+04</pdfrwt>
<totfact> 0.15231271E+02</totfact>
</mgrwt>
</event>
<event>
 6      1 +3.0741590e+01 1.00467800e+03 7.81860800e-03 9.30342900e-02
        2 -1    0    0  502    0 +0.0000000000e+00 +0.0000000000e+00 +2.3475889847e+03 2.3475889847e+03 0.0000000000e+00 0.0000e+00 -1.0000e+00
       -2 -1    0    0    0  501 -0.0000000000e+00 -0.0000000000e+00 -1.1556479507e+02 1.1556479507e+02 0.0000000000e+00 0.0000e+00 1.0000e+00
  5000001  2    1    2    0    0 -1.3257314080e+01 +1.8057085312e+01 +2.0850081705e+03 2.3144408867e+03 1.0044280621e+03 0.0000e+00 0.0000e+00
  5000521  1    3    3    0    0 -3.1959806932e+02 +3.9721157851e+01 +1.9540357233e+03 1.9804232639e+03 1.0000000000e+01 0.0000e+00 -1.0000e+00
 -5000521  1    3    3    0    0 +3.0634075524e+02 -2.1664072539e+01 +1.3097244720e+02 3.3401762272e+02 1.0000000000e+01 0.0000e+00 1.0000e+00
       21  1    1    2  502  501 +1.3257314080e+01 -1.8057085312e+01 +1.4701601907e+02 1.4871289308e+02 0.0000000000e+00 0.0000e+00 1.0000e+00
<mgrwt>
<rscale>  1 0.10046778E+04</rscale>
<asrwt>0</asrwt>
<pdfrwt beam="1">  1        2 0.36116750E+00 0.10046778E+04</pdfrwt>
<pdfrwt beam="2">  1       -2 0.17779201E-01 0.10046778E+04</pdfrwt>
<totfact> 0.11259971E+02</totfact>
</mgrwt>
</event>
<event>
 6      1 +3.0741590e+01 1.01253800e+03 7.81860800e-03 9.29490000e-02
        2 -1    0    0  502    0 +0.0000000000e+00 +0.0000000000e+00 +1.1605994909e+03 1.1605994909e+03 0.0000000000e+00 0.0000e+00 1.0000e+00
       -2 -1    0    0    0  501 -0.0000000000e+00 -0.0000000000e+00 -2.9819993589e+02 2.9819993589e+02 0.0000000000e+00 0.0000e+00 -1.0000e+00
  5000001  2    1    2    0    0 -1.0546235068e+02 +2.6726560598e+01 +8.8829970314e+02 1.3469627865e+03 1.0066756027e+03 0.0000e+00 0.0000e+00
  5000521  1    3    3    0    0 -3.4610558806e+02 +2.7292352512e+01 -7.3881346317e+01 3.5509492242e+02 1.0000000000e+01 0.0000e+00 -1.0000e+00
 -5000521  1    3    3    0    0 +2.4064323738e+02 -5.6579191384e-01 +9.6218104946e+02 9.9186786406e+02 1.0000000000e+01 0.0000e+00 1.0000e+00
       21  1    1    2  502  501 +1.0546235068e+02 -2.6726560598e+01 -2.5900148099e+01 1.1183664035e+02 0.0000000000e+00 0.0000e+00 -1.0000e+00
<mgrwt>
<rscale>  1 0.10125376E+04</rscale>
<asrwt>0</asrwt>
<pdfrwt beam="1">  1        2 0.17855377E+00 0.10125376E+04</pdfrwt>
<pdfrwt beam="2">  1       -2 0.45876914E-01 0.10125376E+04</pdfrwt>
<totfact> 0.89840080E+01</totfact>
</mgrwt>
</event>
<event>
 6      1 +3.0741590e+01 1.03428900e+03 7.81860800e-03 9.27171700e-02
       -3 -1    0    0    0  501 -0.0000000000e+00 +0.0000000000e+00 +3.7874779116e+02 3.7874779116e+02 0.0000000000e+00 0.0000e+00 1.0000e+00
        3 -1    0    0  502    0 +0.0000000000e+00 -0.0000000000e+00 -8.0197659510e+02 8.0197659510e+02 0.0000000000e+00 0.0000e+00 -1.0000e+00
  5000001  2    1    2    0    0 +5.7101979944e+01 -1.1094185989e+01 -3.6084469241e+02 1.0954278773e+03 1.0326517444e+03 0.0000e+00 0.0000e+00
  5000521  1    3    3    0    0 -3.0825240076e+02 -2.5152689783e+02 +1.4779043819e+02 4.2453190284e+02 1.0000000000e+01 0.0000e+00 1.0000e+00
 -5000521  1    3    3    0    0 +3.6535438071e+02 +2.4043271184e+02 -5.0863513060e+02 6.7089597443e+02 1.0000000000e+01 0.0000e+00 -1.0000e+00
       21  1    1    2  502  501 -5.7101979944e+01 +1.1094185989e+01 -6.2384111531e+01 8.5296509001e+01 0.0000000000e+00 0.0000e+00 -1.0000e+00
<mgrwt>
<rscale>  1 0.10342888E+04</rscale>
<asrwt>0</asrwt>
<pdfrwt beam="1">  1        3 0.12338101E+00 0.10342888E+04</pdfrwt>
<pdfrwt beam="2">  1       -3 0.58268891E-01 0.10342888E+04</pdfrwt>
<totfact> 0.39808939E+00</totfact>
</mgrwt>
</event>
<event>
 6      1 +3.0741590e+01 1.00291000e+03 7.81860800e-03 9.30535800e-02
       -2 -1    0    0    0  501 -0.0000000000e+00 +0.0000000000e+00 +4.2081803914e+02 4.2081803914e+02 0.0000000000e+00 0.0000e+00 1.0000e+00
        2 -1    0    0  502    0 +0.0000000000e+00 -0.0000000000e+00 -7.5463487000e+02 7.5463487000e+02 0.0000000000e+00 0.0000e+00 -1.0000e+00
  5000001  2    1    2    0    0 -4.9085582854e+01 +2.2716204809e+01 -1.8859901910e+02 1.0204895804e+03 1.0014509340e+03 0.0000e+00 0.0000e+00
  5000521  1    3    3    0    0 -2.5449305038e+02 +5.6611718668e+01 -5.4691720648e+02 6.0596206987e+02 1.0000000000e+01 0.0000e+00 -1.0000e+00
 -5000521  1    3    3    0    0 +2.0540746752e+02 -3.3895513859e+01 +3.5831818738e+02 4.1452751052e+02 1.0000000000e+01 0.0000e+00 1.0000e+00
       21  1    1    2  502  501 +4.9085582854e+01 -2.2716204809e+01 -1.4521781175e+02 1.5496332874e+02 0.0000000000e+00 0.0000e+00 -1.0000e+00
<mgrwt>
<rscale>  1 0.10029105E+04</rscale>
<asrwt>0</asrwt>
<pdfrwt beam="1">  1        2 0.11609767E+00 0.10029105E+04</pdfrwt>
<pdfrwt beam="2">  1       -2 0.64741237E-01 0.10029105E+04</pdfrwt>
<totfact> 0.81723467E+01</totfact>
</mgrwt>
</event>
<event>
 6      1 +3.0741590e+01 1.00695100e+03 7.81860800e-03 9.30095400e-02
       -2 -1    0    0    0  501 -0.0000000000e+00 +0.0000000000e+00 +9.6856216825e+02 9.6856216825e+02 0.0000000000e+00 0.0000e+00 1.0000e+00
        2 -1    0    0  502    0 +0.0000000000e+00 -0.0000000000e+00 -3.7381691774e+02 3.7381691774e+02 0.0000000000e+00 0.0000e+00 -1.0000e+00
  5000001  2    1    2    0    0 +6.8825421275e+01 -3.3597641651e+01 +3.1911664605e+02 1.0563076478e+03 1.0040341991e+03 0.0000e+00 0.0000e+00
  5000521  1    3    3    0    0 -1.4637083811e+02 +1.3673248868e+02 +6.1840501642e+02 6.5011149816e+02 1.0000000000e+01 0.0000e+00 1.0000e+00
 -5000521  1    3    3    0    0 +2.1519625938e+02 -1.7033013033e+02 -2.9928837037e+02 4.0619614965e+02 1.0000000000e+01 0.0000e+00 -1.0000e+00
       21  1    1    2  502  501 -6.8825421275e+01 +3.3597641651e+01 +2.7562860447e+02 2.8607143817e+02 0.0000000000e+00 0.0000e+00 1.0000e+00
<mgrwt>
<rscale>  1 0.10069510E+04</rscale>
<asrwt>0</asrwt>
<pdfrwt beam="1">  1        2 0.57510296E-01 0.10069510E+04</pdfrwt>
<pdfrwt beam="2">  1       -2 0.14900956E+00 0.10069510E+04</pdfrwt>
<totfact> 0.26055541E+01</totfact>
</mgrwt>
</event>
<event>
 6      1 +3.0741590e+01 1.02728800e+03 7.81860800e-03 9.27911200e-02
        1 -1    0    0  502    0 +0.0000000000e+00 +0.0000000000e+00 +1.8304014372e+03 1.8304014372e+03 0.0000000000e+00 0.0000e+00 -1.0000e+00
       -1 -1    0    0    0  501 -0.0000000000e+00 -0.0000000000e+00 -2.7932496179e+02 2.7932496179e+02 0.0000000000e+00 0.0000e+00 1.0000e+00
  5000001  2    1    2    0    0 +5.8884229186e+01 -2.1450897269e+02 +7.3310276937e+02 1.2620457778e+03 1.0029149630e+03 0.0000e+00 0.0000e+00
  5000521  1    3    3    0    0 +2.2339786678e+01 -3.1456333568e+02 -1.6605610467e+02 3.5654423024e+02 1.0000000000e+01 0.0000e+00 1.0000e+00
 -5000521  1    3    3    0    0 +3.6544442508e+01 +1.0005436299e+02 +8.9915887403e+02 9.0550154753e+02 1.0000000000e+01 0.0000e+00 -1.0000e+00
       21  1    1    2  502  501 -5.8884229186e+01 +2.1450897269e+02 +8.1797370608e+02 8.4768062125e+02 0.0000000000e+00 0.0000e+00 -1.0000e+00
<mgrwt>
<rscale>  1 0.10272876E+04</rscale>
<asrwt>0</asrwt>
<pdfrwt beam="1">  1        1 0.28160021E+00 0.10272876E+04</pdfrwt>
<pdfrwt beam="2">  1       -1 0.42973072E-01 0.10272876E+04</pdfrwt>
<totfact> 0.20847471E+01</totfact>
</mgrwt>
</event>
<event>
 6      1 +3.0741590e+01 1.00248600e+03 7.81860800e-03 9.30582200e-02
        2 -1    0    0  502    0 +0.0000000000e+00 +0.0000000000e+00 +8.5850878275e+02 8.5850878275e+02 0.0000000000e+00 0.0000e+00 -1.0000e+00
       -2 -1    0    0    0  501 -0.0000000000e+00 -0.0000000000e+00 -3.3722080650e+02 3.3722080650e+02 0.0000000000e+00 0.0000e+00 1.0000e+00
  5000001  2    1    2    0    0 +5.0959356931e+01 +2.2134943723e+01 +5.3797939087e+02 1.1377173913e+03 1.0009456657e+03 0.0000e+00 0.0000e+00
  5000521  1    3    3    0    0 +4.0317083145e+02 +3.1249523728e+02 +1.3259379019e+02 5.2714429320e+02 1.0000000000e+01 0.0000e+00 1.0000e+00
 -5000521  1    3    3    0    0 -3.5221147452e+02 -2.9036029356e+02 +4.0538560068e+02 6.1057309807e+02 1.0000000000e+01 0.0000e+00 -1.0000e+00
       21  1    1    2  502  501 -5.0959356931e+01 -2.2134943723e+01 -1.6691414624e+01 5.8012197981e+01 0.0000000000e+00 0.0000e+00 1.0000e+00
<mgrwt>
<rscale>  1 0.10024864E+04</rscale>
<asrwt>0</asrwt>
<pdfrwt beam="1">  1        2 0.13207827E+00 0.10024864E+04</pdfrwt>
<pdfrwt beam="2">  1       -2 0.51880124E-01 0.10024864E+04</pdfrwt>
<totfact> 0.10959865E+02</totfact>
</mgrwt>
</event>
<event>
 6      1 +3.0741590e+01 1.00847500e+03 7.81860800e-03 9.29929800e-02
       -2 -1    0    0    0  501 -0.0000000000e+00 +0.0000000000e+00 +1.2150225394e+02 1.2150225394e+02 0.0000000000e+00 0.0000e+00 -1.0000e+00
        2 -1    0    0  502    0 +0.0000000000e+00 -0.0000000000e+00 -2.6597061055e+03 2.6597061055e+03 0.0000000000e+00 0.0000e+00 1.0000e+00
  5000001  2    1    2    0    0 +1.1084405284e+02 -8.8391268931e+00 -2.4037627205e+03 2.6067407351e+03 1.0023260495e+03 0.0000e+00 0.0000e+00
  5000521  1    3    3    0    0 +5.2499030805e+02 +2.0241787901e+00 -8.5388311314e+02 1.0024147304e+03 1.0000000000e+01 0.0000e+00 1.0000e+00
 -5000521  1    3    3    0    0 -4.1414625521e+02 -1.0863305683e+01 -1.5498796074e+03 1.6043260047e+03 1.0000000000e+01 0.0000e+00 -1.0000e+00
       21  1    1    2  502  501 -1.1084405284e+02 +8.8391268931e+00 -1.3444113110e+02 1.7446762435e+02 0.0000000000e+00 0.0000e+00 -1.0000e+00
<mgrwt>
<rscale>  1 0.10084751E+04</rscale>
<asrwt>0</asrwt>
<pdfrwt beam="1">  1        2 0.40918551E+00 0.10084751E+04</pdfrwt>
<pdfrwt beam="2">  1       -2 0.18692656E-01 0.10084751E+04</pdfrwt>
<totfact> 0.68366823E+01</totfact>
</mgrwt>
</event>
<event>
 6      1 +3.0741590e+01 9.89600300e+02 7.81860800e-03 9.32002500e-02
       -2 -1    0    0    0  501 -0.0000000000e+00 +0.0000000000e+00 +1.0576024361e+03 1.0576024361e+03 0.0000000000e+00 0.0000e+00 1.0000e+00
       21 -1    0    0  501  502 +0.0000000000e+00 -0.0000000000e+00 -3.6364114392e+02 3.6364114392e+02 0.0000000000e+00 0.0000e+00 -1.0000e+00
  5000001  2    1    2    0    0 +3.8349688754e+01 +1.8108932789e+02 +7.3370190658e+02 1.2319201537e+03 9.7213411326e+02 0.0000e+00 0.0000e+00
  5000521  1    3    3    0    0 +5.0371698492e+01 -4.0211532027e+02 +2.7647666147e+02 4.9068664455e+02 1.0000000000e+01 0.0000e+00 1.0000e+00
 -5000521  1    3    3    0    0 -1.2022009738e+01 +5.8320464817e+02 +4.5722524511e+02 7.4123350918e+02 1.0000000000e+01 0.0000e+00 -1.0000e+00
       -2  1    1    2    0  502 -3.8349688754e+01 -1.8108932789e+02 -3.9740614406e+01 1.8932342628e+02 0.0000000000e+00 0.0000e+00 1.0000e+00
<mgrwt>
<rscale>  1 0.98960031E+03</rscale>
<asrwt>0</asrwt>
<pdfrwt beam="1">  1       21 0.55944792E-01 0.98960031E+03</pdfrwt>
<pdfrwt beam="2">  1       -2 0.16270807E+00 0.98960031E+03</pdfrwt>
<totfact> 0.52281220E+01</totfact>
</mgrwt>
</event>
<event>
 6      1 +3.0741590e+01 1.00420300e+03 7.81860800e-03 9.30394700e-02
       -5 -1    0    0    0  501 -0.0000000000e+00 +0.0000000000e+00 +1.7623612846e+03 1.7623612846e+03 0.0000000000e+00 0.0000e+00 -1.0000e+00
        5 -1    0    0  502    0 +0.0000000000e+00 -0.0000000000e+00 -1.9244976725e+02 1.9244976725e+02 0.0000000000e+00 0.0000e+00 1.0000e+00
  5000001  2    1    2    0    0 +4.1710581914e+01 +1.3182768888e+02 +1.2300977264e+03 1.5879436034e+03 9.9463870774e+02 0.0000e+00 0.0000e+00
  5000521  1    3    3    0    0 +1.5505571727e+02 -1.5943854332e+02 -8.3400198493e+01 2.3773623548e+02 1.0000000000e+01 0.0000e+00 1.0000e+00
 -5000521  1    3    3    0    0 -1.1334513535e+02 +2.9126623220e+02 +1.3134979249e+03 1.3502073679e+03 1.0000000000e+01 0.0000e+00 -1.0000e+00
       21  1    1    2  502  501 -4.1710581914e+01 -1.3182768888e+02 +3.3981379102e+02 3.6686744850e+02 0.0000000000e+00 0.0000e+00 -1.0000e+00
<mgrwt>
<rscale>  1 0.10042034E+04</rscale>
<asrwt>0</asrwt>
<pdfrwt beam="1">  1        5 0.29607658E-01 0.10042034E+04</pdfrwt>
<pdfrwt beam="2">  1       -5 0.27113249E+00 0.10042034E+04</pdfrwt>
<totfact> 0.39982397E-01</totfact>
</mgrwt>
</event>
<event>
 6      1 +3.0741590e+01 9.97159100e+02 7.81860800e-03 9.31166600e-02
       -2 -1    0    0    0  501 -0.0000000000e+00 +0.0000000000e+00 +1.6137963298e+02 1.6137963298e+02 0.0000000000e+00 0.0000e+00 1.0000e+00
        2 -1    0    0  502    0 +0.0000000000e+00 -0.0000000000e+00 -1.7032546834e+03 1.7032546834e+03 0.0000000000e+00 0.0000e+00 -1.0000e+00
  5000001  2    1    2    0    0 -2.9281281591e+01 +1.4381193383e+01 -1.5362965319e+03 1.8315385154e+03 9.9662534943e+02 0.0000e+00 0.0000e+00
  5000521  1    3    3    0    0 +9.4154760636e-01 -1.7708166104e+02 +8.6389153938e+01 1.9728630745e+02 1.0000000000e+01 0.0000e+00 1.0000e+00
 -5000521  1    3    3    0    0 -3.0222829197e+01 +1.9146285442e+02 -1.6226856859e+03 1.6342522079e+03 1.0000000000e+01 0.0000e+00 -1.0000e+00
       21  1    1    2  502  501 +2.9281281591e+01 -1.4381193383e+01 -5.5785184865e+00 3.3095800991e+01 0.0000000000e+00 0.0000e+00 -1.0000e+00
<mgrwt>
<rscale>  1 0.99715911E+03</rscale>
<asrwt>0</asrwt>
<pdfrwt beam="1">  1        2 0.26203917E+00 0.99715911E+03</pdfrwt>
<pdfrwt beam="2">  1       -2 0.24827637E-01 0.99715911E+03</pdfrwt>
<totfact> 0.14177465E+02</totfact>
</mgrwt>
</event>
<event>
 6      1 +3.0741590e+01 1.02449100e+03 7.81860800e-03 9.28208400e-02
       -2 -1    0    0    0  501 -0.0000000000e+00 +0.0000000000e+00 +2.0678307427e+02 2.0678307427e+02 0.0000000000e+00 0.0000e+00 1.0000e+00
        2 -1    0    0  502    0 +0.0000000000e+00 -0.0000000000e+00 -1.8631802016e+03 1.8631802016e+03 0.0000000000e+00 0.0000e+00 -1.0000e+00
  5000001  2    1    2    0    0 +4.0810301538e+01 +1.2113332193e+02 -1.1172016970e+03 1.5158238760e+03 1.0164859217e+03 0.0000e+00 0.0000e+00
  5000521  1    3    3    0    0 -2.8870957624e+02 +2.2944280303e+02 -1.1089660912e+03 1.1687185336e+03 1.0000000000e+01 0.0000e+00 -1.0000e+00
 -5000521  1    3    3    0    0 +3.2951987777e+02 -1.0830948110e+02 -8.2356057928e+00 3.4710534244e+02 1.0000000000e+01 0.0000e+00 1.0000e+00
       21  1    1    2  502  501 -4.0810301538e+01 -1.2113332193e+02 -5.3919543029e+02 5.5413939983e+02 0.0000000000e+00 0.0000e+00 1.0000e+00
<mgrwt>
<rscale>  1 0.10244913E+04</rscale>
<asrwt>0</asrwt>
<pdfrwt beam="1">  1        2 0.28664310E+00 0.10244913E+04</pdfrwt>
<pdfrwt beam="2">  1       -2 0.31812782E-01 0.10244913E+04</pdfrwt>
<totfact> 0.73084887E+01</totfact>
</mgrwt>
</event>
<event>
 6      1 +3.0741590e+01 9.99588700e+02 7.81860800e-03 9.30899600e-02
        2 -1    0    0  502    0 +0.0000000000e+00 +0.0000000000e+00 +1.6207159267e+03 1.6207159267e+03 0.0000000000e+00 0.0000e+00 1.0000e+00
       -2 -1    0    0    0  501 -0.0000000000e+00 -0.0000000000e+00 -1.9939120253e+02 1.9939120253e+02 0.0000000000e+00 0.0000e+00 -1.0000e+00
  5000001  2    1    2    0    0 +1.8706572567e+01 -8.8798678054e+01 +1.4104051846e+03 1.7287048457e+03 9.9546095747e+02 0.0000e+00 0.0000e+00
  5000521  1    3    3    0    0 +4.7992099388e+02 -1.0147436065e+01 +9.8711673249e+02 1.0976914750e+03 1.0000000000e+01 0.0000e+00 1.0000e+00
 -5000521  1    3    3    0    0 -4.6121442132e+02 -7.8651241989e+01 +4.2328845211e+02 6.3101337069e+02 1.0000000000e+01 0.0000e+00 -1.0000e+00
       21  1    1    2  502  501 -1.8706572567e+01 +8.8798678054e+01 +1.0919539546e+01 9.1402283480e+01 0.0000000000e+00 0.0000e+00 -1.0000e+00
<mgrwt>
<rscale>  1 0.99958874E+03</rscale>
<asrwt>0</asrwt>
<pdfrwt beam="1">  1        2 0.24934090E+00 0.99958874E+03</pdfrwt>
<pdfrwt beam="2">  1       -2 0.30675571E-01 0.99958874E+03</pdfrwt>
<totfact> 0.10670457E+02</totfact>
</mgrwt>
</event>
<event>
 6      1 +3.0741590e+01 9.94703200e+02 7.81860800e-03 9.31437300e-02
       21 -1    0    0  501  502 +0.0000000000e+00 +0.0000000000e+00 +2.3765759900e+02 2.3765759900e+02 0.0000000000e+00 0.0000e+00 -1.0000e+00
        2 -1    0    0  502    0 -0.0000000000e+00 -0.0000000000e+00 -1.4774765798e+03 1.4774765798e+03 0.0000000000e+00 0.0000e+00 1.0000e+00
  5000001  2    1    2    0    0 -2.9842638302e+01 +1.5731355030e+01 -1.3055159616e+03 1.6412819488e+03 9.9413100289e+02 0.0000e+00 0.0000e+00
  5000521  1    3    3    0    0 +3.2998599343e+02 +2.2849729690e+02 -1.1086463873e+03 1.1791092327e+03 1.0000000000e+01 0.0000e+00 1.0000e+00
 -5000521  1    3    3    0    0 -3.5982863173e+02 -2.1276594187e+02 -1.9686957428e+02 4.6217271610e+02 1.0000000000e+01 0.0000e+00 -1.0000e+00
        2  1    1    2  501    0 +2.9842638302e+01 -1.5731355030e+01 +6.5696980785e+01 7.3852230001e+01 0.0000000000e+00 0.0000e+00 1.0000e+00
<mgrwt>
<rscale>  1 0.99470323E+03</rscale>
<asrwt>0</asrwt>
<pdfrwt beam="1">  1       21 0.36562707E-01 0.99470323E+03</pdfrwt>
<pdfrwt beam="2">  1        2 0.22730409E+00 0.99470323E+03</pdfrwt>
<totfact> 0.10702561E+03</totfact>
</mgrwt>
</event>
<event>
 6      1 +3.0741590e+01 9.88364500e+02 7.81860800e-03 9.32139900e-02
        2 -1    0    0  502    0 +0.0000000000e+00 +0.0000000000e+00 +1.6948857290e+03 1.6948857290e+03 0.0000000000e+00 0.0000e+00 -1.0000e+00
       -2 -1    0    0    0  501 -0.0000000000e+00 -0.0000000000e+00 -1.6502337143e+02 1.6502337143e+02 0.0000000000e+00 0.0000e+00 1.0000e+00
  5000001  2    1    2    0    0 -3.0690512643e+01 -3.6335212349e+00 +1.5377736496e+03 1.8280077120e+03 9.8788121129e+02 0.0000e+00 0.0000e+00
  5000521  1    3    3    0    0 +3.6253678488e+02 +6.2908690045e+01 +1.7411972723e+02 4.0719541142e+02 1.0000000000e+01 0.0000e+00 1.0000e+00
 -5000521  1    3    3    0    0 -3.9322729752e+02 -6.6542211280e+01 +1.3636539224e+03 1.4208123006e+03 1.0000000000e+01 0.0000e+00 -1.0000e+00
       21  1    1    2  502  501 +3.0690512643e+01 +3.6335212349e+00 -7.9112920415e+00 3.1901388444e+01 0.0000000000e+00 0.0000e+00 -1.0000e+00
<mgrwt>
<rscale>  1 0.98836451E+03</rscale>
<asrwt>0</asrwt>
<pdfrwt beam="1">  1        2 0.26075164E+00 0.98836451E+03</pdfrwt>
<pdfrwt beam="2">  1       -2 0.25388212E-01 0.98836451E+03</pdfrwt>
<totfact> 0.13768696E+02</totfact>
</mgrwt>
</event>
<event>
 6      1 +3.0741590e+01 9.82256000e+02 7.81860800e-03 9.32822300e-02
       -2 -1    0    0    0  501 -0.0000000000e+00 +0.0000000000e+00 +1.7062491597e+02 1.7062491597e+02 0.0000000000e+00 0.0000e+00 1.0000e+00
        2 -1    0    0  502    0 +0.0000000000e+00 -0.0000000000e+00 -1.9629129710e+03 1.9629129710e+03 0.0000000000e+00 0.0000e+00 -1.0000e+00
  5000001  2    1    2    0    0 +1.5788429300e+01 -2.0905644713e+01 -1.2459608097e+03 1.5865828802e+03 9.8190660240e+02 0.0000e+00 0.0000e+00
  5000521  1    3    3    0    0 +1.2493450343e+02 +4.5973051853e+02 -7.4016862774e+02 8.8028993934e+02 1.0000000000e+01 0.0000e+00 -1.0000e+00
 -5000521  1    3    3    0    0 -1.0914607413e+02 -4.8063616325e+02 -5.0579218194e+02 7.0629294081e+02 1.0000000000e+01 0.0000e+00 1.0000e+00
       21  1    1    2  502  501 -1.5788429300e+01 +2.0905644713e+01 -5.4632724536e+02 5.4695500684e+02 0.0000000000e+00 0.0000e+00 -1.0000e+00
<mgrwt>
<rscale>  1 0.98225602E+03</rscale>
<asrwt>0</asrwt>
<pdfrwt beam="1">  1        2 0.30198660E+00 0.98225602E+03</pdfrwt>
<pdfrwt beam="2">  1       -2 0.26249988E-01 0.98225602E+03</pdfrwt>
<totfact> 0.92291961E+01</totfact>
</mgrwt>
</event>
<event>
 6      1 +3.0741590e+01 1.03210600e+03 7.81860800e-03 9.27401600e-02
       -1 -1    0    0    0  501 -0.0000000000e+00 +0.0000000000e+00 +6.7195688243e+02 6.7195688243e+02 0.0000000000e+00 0.0000e+00 -1.0000e+00
        1 -1    0    0  502    0 +0.0000000000e+00 -0.0000000000e+00 -6.1334191469e+02 6.1334191469e+02 0.0000000000e+00 0.0000e+00 1.0000e+00
  5000001  2    1    2    0    0 -1.6630955100e+02 -1.6960452670e+02 +1.2241840984e+02 1.0393405863e+03 1.0043993355e+03 0.0000e+00 0.0000e+00
  5000521  1    3    3    0    0 +5.5897373557e+01 +3.4699091259e+02 +2.8638641072e+02 4.5348030391e+02 1.0000000000e+01 0.0000e+00 -1.0000e+00
 -5000521  1    3    3    0    0 -2.2220692456e+02 -5.1659543928e+02 -1.6396800089e+02 5.8586028243e+02 1.0000000000e+01 0.0000e+00 1.0000e+00
       21  1    1    2  502  501 +1.6630955100e+02 +1.6960452670e+02 -6.3803442099e+01 2.4595821079e+02 0.0000000000e+00 0.0000e+00 1.0000e+00
<mgrwt>
<rscale>  1 0.10321059E+04</rscale>
<asrwt>0</asrwt>
<pdfrwt beam="1">  1        1 0.94360295E-01 0.10321059E+04</pdfrwt>
<pdfrwt beam="2">  1       -1 0.10337798E+00 0.10321059E+04</pdfrwt>
<totfact> 0.29290498E+01</totfact>
</mgrwt>
</event>
<event>
 6      1 +3.0741590e+01 1.00306000e+03 7.81860800e-03 9.30519500e-02
        1 -1    0    0  502    0 +0.0000000000e+00 +0.0000000000e+00 +1.7314860443e+02 1.7314860443e+02 0.0000000000e+00 0.0000e+00 -1.0000e+00
       -1 -1    0    0    0  501 -0.0000000000e+00 -0.0000000000e+00 -1.6096199704e+03 1.6096199704e+03 0.0000000000e+00 0.0000e+00 1.0000e+00
  5000001  2    1    2    0    0 +1.0422116300e+01 +4.8078945115e+01 -1.3333908890e+03 1.6685504055e+03 1.0018527773e+03 0.0000e+00 0.0000e+00
  5000521  1    3    3    0    0 -4.8593234208e+02 +1.2192190201e+02 -6.7440013495e+02 8.4018493994e+02 1.0000000000e+01 0.0000e+00 1.0000e+00
 -5000521  1    3    3    0    0 +4.9635445838e+02 -7.3842956894e+01 -6.5899075408e+02 8.2836546560e+02 1.0000000000e+01 0.0000e+00 -1.0000e+00
       21  1    1    2  502  501 -1.0422116300e+01 -4.8078945115e+01 -1.0308047695e+02 1.1421816931e+02 0.0000000000e+00 0.0000e+00 1.0000e+00
<mgrwt>
<rscale>  1 0.10030599E+04</rscale>
<asrwt>0</asrwt>
<pdfrwt beam="1">  1        1 0.26638246E-01 0.10030599E+04</pdfrwt>
<pdfrwt beam="2">  1       -1 0.24763385E+00 0.10030599E+04</pdfrwt>
<totfact> 0.13087749E+01</totfact>
</mgrwt>
</event>
<event>
 6      1 +3.0741590e+01 9.97649700e+02 7.81860800e-03 9.31112600e-02
       -2 -1    0    0    0  501 -0.0000000000e+00 +0.0000000000e+00 +1.3986325925e+02 1.3986325925e+02 0.0000000000e+00 0.0000e+00 1.0000e+00
        2 -1    0    0  502    0 +0.0000000000e+00 -0.0000000000e+00 -2.0380818115e+03 2.0380818115e+03 0.0000000000e+00 0.0000e+00 -1.0000e+00
  5000001  2    1    2    0    0 -4.4800894093e+01 +1.8016101706e+01 -1.8760280445e+03 2.1248026332e+03 9.9648045957e+02 0.0000e+00 0.0000e+00
  5000521  1    3    3    0    0 +2.2808901760e+01 +6.8878776512e+01 +1.1261371744e+02 1.3433682001e+02 1.0000000000e+01 0.0000e+00 1.0000e+00
 -5000521  1    3    3    0    0 -6.7609795853e+01 -5.0862674806e+01 -1.9886417620e+03 1.9904658132e+03 1.0000000000e+01 0.0000e+00 -1.0000e+00
       21  1    1    2  502  501 +4.4800894093e+01 -1.8016101706e+01 -2.2190507738e+01 5.3142437523e+01 0.0000000000e+00 0.0000e+00 1.0000e+00
<mgrwt>
<rscale>  1 0.99764974E+03</rscale>
<asrwt>0</asrwt>
<pdfrwt beam="1">  1        2 0.31355105E+00 0.99764974E+03</pdfrwt>
<pdfrwt beam="2">  1       -2 0.21517425E-01 0.99764974E+03</pdfrwt>
<totfact> 0.11984780E+02</totfact>
</mgrwt>
</event>
<event>
 6      1 +3.0741590e+01 9.80712400e+02 7.81860800e-03 9.32995600e-02
       21 -1    0    0  501  502 +0.0000000000e+00 +0.0000000000e+00 +3.3060601860e+02 3.3060601860e+02 0.0000000000e+00 0.0000e+00 -1.0000e+00
        1 -1    0    0  502    0 -0.0000000000e+00 -0.0000000000e+00 -8.7474180839e+02 8.7474180839e+02 0.0000000000e+00 0.0000e+00 1.0000e+00
  5000001  2    1    2    0    0 +9.9831315590e+00 -4.4380849378e+01 -5.8690069867e+02 1.1429125794e+03 9.7965678247e+02 0.0000e+00 0.0000e+00
  5000521  1    3    3    0    0 +1.6421447901e+02 -6.3024831743e+01 -8.3315454271e+02 8.5157795684e+02 1.0000000000e+01 0.0000e+00 1.0000e+00
 -5000521  1    3    3    0    0 -1.5423134745e+02 +1.8643982365e+01 +2.4625384405e+02 2.9133462260e+02 1.0000000000e+01 0.0000e+00 -1.0000e+00
        1  1    1    2  501    0 -9.9831315590e+00 +4.4380849378e+01 +4.2764908873e+01 6.2435247562e+01 0.0000000000e+00 0.0000e+00 1.0000e+00
<mgrwt>
<rscale>  1 0.98071236E+03</rscale>
<asrwt>0</asrwt>
<pdfrwt beam="1">  1       21 0.50862465E-01 0.98071236E+03</pdfrwt>
<pdfrwt beam="2">  1        1 0.13457566E+00 0.98071236E+03</pdfrwt>
<totfact> 0.68467573E+02</totfact>
</mgrwt>
</event>
<event>
 6      1 +3.0741590e+01 1.00308400e+03 7.81860800e-03 9.30516900e-02
        2 -1    0    0  502    0 +0.0000000000e+00 +0.0000000000e+00 +1.5199165634e+03 1.5199165634e+03 0.0000000000e+00 0.0000e+00 -1.0000e+00
       -2 -1    0    0    0  501 -0.0000000000e+00 -0.0000000000e+00 -3.0540843396e+02 3.0540843396e+02 0.0000000000e+00 0.0000e+00 1.0000e+00
  5000001  2    1    2    0    0 +3.4907457471e+01 +8.5764189890e+01 +1.3372017748e+03 1.6716117662e+03 9.9880092284e+02 0.0000e+00 0.0000e+00
  5000521  1    3    3    0    0 +3.7053698630e+02 +5.4346806160e+01 +9.7861017685e+01 3.8720538779e+02 1.0000000000e+01 0.0000e+00 1.0000e+00
 -5000521  1    3    3    0    0 -3.3562952883e+02 +3.1417383730e+01 +1.2393407571e+03 1.2844063784e+03 1.0000000000e+01 0.0000e+00 -1.0000e+00
       21  1    1    2  502  501 -3.4907457471e+01 -8.5764189890e+01 -1.2269364530e+02 1.5371323122e+02 0.0000000000e+00 0.0000e+00 -1.0000e+00
<mgrwt>
<rscale>  1 0.10030839E+04</rscale>
<asrwt>0</asrwt>
<pdfrwt beam="1">  1        2 0.23383331E+00 0.10030839E+04</pdfrwt>
<pdfrwt beam="2">  1       -2 0.46985914E-01 0.10030839E+04</pdfrwt>
<totfact> 0.53051714E+01</totfact>
</mgrwt>
</event>
<event>
 6      1 +3.0741590e+01 9.98541500e+02 7.81860800e-03 9.31014600e-02
       21 -1    0    0  501  502 +0.0000000000e+00 +0.0000000000e+00 +9.7571036529e+02 9.7571036529e+02 0.0000000000e+00 0.0000e+00 1.0000e+00
       -5 -1    0    0    0  501 -0.0000000000e+00 -0.0000000000e+00 -2.8648423676e+02 2.8648423676e+02 0.0000000000e+00 0.0000e+00 -1.0000e+00
  5000001  2    1    2    0    0 +1.9642185926e+01 +1.8316691026e+01 +5.9092813816e+02 1.1602936131e+03 9.9818028808e+02 0.0000e+00 0.0000e+00
  5000521  1    3    3    0    0 -3.3109177375e+01 +4.0422265936e+02 -5.1492704771e+01 4.0895436739e+02 1.0000000000e+01 0.0000e+00 -1.0000e+00
 -5000521  1    3    3    0    0 +5.2751363301e+01 -3.8590596833e+02 +6.4242084293e+02 7.5133924572e+02 1.0000000000e+01 0.0000e+00 1.0000e+00
       -5  1    1    2    0  502 -1.9642185926e+01 -1.8316691026e+01 +9.8297990362e+01 1.0190098894e+02 0.0000000000e+00 0.0000e+00 -1.0000e+00
<mgrwt>
<rscale>  1 0.99854154E+03</rscale>
<asrwt>0</asrwt>
<pdfrwt beam="1">  1       21 0.15010928E+00 0.99854154E+03</pdfrwt>
<pdfrwt beam="2">  1       -5 0.44074499E-01 0.99854154E+03</pdfrwt>
<totfact> 0.38571381E+01</totfact>
</mgrwt>
</event>
<event>
 6      1 +3.0741590e+01 1.00354800e+03 7.81860800e-03 9.30466200e-02
        2 -1    0    0  502    0 +0.0000000000e+00 +0.0000000000e+00 +5.4469641390e+02 5.4469641390e+02 0.0000000000e+00 0.0000e+00 1.0000e+00
       -2 -1    0    0    0  501 -0.0000000000e+00 -0.0000000000e+00 -5.6360313220e+02 5.6360313220e+02 0.0000000000e+00 0.0000e+00 -1.0000e+00
  5000001  2    1    2    0    0 -4.0022345161e+01 -6.0546244204e+01 -8.8888895897e+01 1.0074772223e+03 1.0009203174e+03 0.0000e+00 0.0000e+00
  5000521  1    3    3    0    0 +4.3012454179e+00 -1.2723926117e+02 -5.3709279377e+02 5.5206611870e+02 1.0000000000e+01 0.0000e+00 -1.0000e+00
 -5000521  1    3    3    0    0 -4.4323590579e+01 +6.6693016965e+01 +4.4820389787e+02 4.5541110358e+02 1.0000000000e+01 0.0000e+00 1.0000e+00
       21  1    1    2  502  501 +4.0022345161e+01 +6.0546244204e+01 +6.9982177592e+01 1.0082232382e+02 0.0000000000e+00 0.0000e+00 1.0000e+00
<mgrwt>
<rscale>  1 0.10035483E+04</rscale>
<asrwt>0</asrwt>
<pdfrwt beam="1">  1        2 0.83799448E-01 0.10035483E+04</pdfrwt>
<pdfrwt beam="2">  1       -2 0.86708174E-01 0.10035483E+04</pdfrwt>
<totfact> 0.63968695E+01</totfact>
</mgrwt>
</event>
<event>
 6      1 +3.0741590e+01 1.08284300e+03 7.81860800e-03 9.22207800e-02
        2 -1    0    0  502    0 +0.0000000000e+00 +0.0000000000e+00 +3.4410768286e+03 3.4410768286e+03 0.0000000000e+00 0.0000e+00 -1.0000e+00
       -2 -1    0    0    0  501 -0.0000000000e+00 -0.0000000000e+00 -8.9739872490e+01 8.9739872490e+01 0.0000000000e+00 0.0000e+00 1.0000e+00
  5000001  2    1    2    0    0 +2.2297207285e+01 +1.1239031900e+01 +3.2220425584e+03 3.3991332831e+03 1.0825550087e+03 0.0000e+00 0.0000e+00
  5000521  1    3    3    0    0 -1.3525955690e+02 -4.7324892468e+02 +9.4245120281e+02 1.0632845161e+03 1.0000000000e+01 0.0000e+00 1.0000e+00
 -5000521  1    3    3    0    0 +1.5755676419e+02 +4.8448795658e+02 +2.2795913556e+03 2.3358487671e+03 1.0000000000e+01 0.0000e+00 -1.0000e+00
       21  1    1    2  502  501 -2.2297207285e+01 -1.1239031900e+01 +1.2929439770e+02 1.3168341797e+02 0.0000000000e+00 0.0000e+00 -1.0000e+00
<mgrwt>
<rscale>  1 0.10828429E+04</rscale>
<asrwt>0</asrwt>
<pdfrwt beam="1">  1        2 0.52939633E+00 0.10828429E+04</pdfrwt>
<pdfrwt beam="2">  1       -2 0.13806137E-01 0.10828429E+04</pdfrwt>
<totfact> 0.36981804E+01</totfact>
</mgrwt>
</event>
<event>
 6      1 +3.0741590e+01 1.01851700e+03 7.81860800e-03 9.28846600e-02
       -1 -1    0    0    0  501 -0.0000000000e+00 +0.0000000000e+00 +1.0323716314e+02 1.0323716314e+02 0.0000000000e+00 0.0000e+00 1.0000e+00
        1 -1    0    0  502    0 +0.0000000000e+00 -0.0000000000e+00 -3.6407112978e+03 3.6407112978e+03 0.0000000000e+00 0.0000e+00 -1.0000e+00
  5000001  2    1    2    0    0 -3.6295570833e+01 -1.9109175125e+02 -2.7424386236e+03 2.9254651748e+03 9.9977170336e+02 0.0000e+00 0.0000e+00
  5000521  1    3    3    0    0 +1.4840785526e+02 +1.6370053212e+02 -8.3234100210e+01 2.3632746594e+02 1.0000000000e+01 0.0000e+00 1.0000e+00
 -5000521  1    3    3    0    0 -1.8470342609e+02 -3.5479228337e+02 -2.6592045234e+03 2.6891377088e+03 1.0000000000e+01 0.0000e+00 -1.0000e+00
       21  1    1    2  502  501 +3.6295570833e+01 +1.9109175125e+02 -7.9503551107e+02 8.1848328616e+02 0.0000000000e+00 0.0000e+00 -1.0000e+00
<mgrwt>
<rscale>  1 0.10185170E+04</rscale>
<asrwt>0</asrwt>
<pdfrwt beam="1">  1        1 0.56010939E+00 0.10185170E+04</pdfrwt>
<pdfrwt beam="2">  1       -1 0.15882642E-01 0.10185170E+04</pdfrwt>
<totfact> 0.59957553E+00</totfact>
</mgrwt>
</event>
<event>
 6      1 +3.0741590e+01 1.00208400e+03 7.81860800e-03 9.30626300e-02
       -1 -1    0    0    0  501 -0.0000000000e+00 +0.0000000000e+00 +4.5119661664e+02 4.5119661664e+02 0.0000000000e+00 0.0000e+00 1.0000e+00
       21 -1    0    0  501  502 +0.0000000000e+00 -0.0000000000e+00 -9.4357576944e+02 9.4357576944e+02 0.0000000000e+00 0.0000e+00 -1.0000e+00
  5000001  2    1    2    0    0 -2.2539000598e+01 +1.3361686497e+02 -1.3321816895e+02 1.0108999001e+03 9.9287967768e+02 0.0000e+00 0.0000e+00
  5000521  1    3    3    0    0 +4.4705908159e+02 +2.1563516101e+02 -1.8821142429e+02 5.3092738235e+02 1.0000000000e+01 0.0000e+00 1.0000e+00
 -5000521  1    3    3    0    0 -4.6959808218e+02 -8.2018296034e+01 +5.4993255348e+01 4.7997251777e+02 1.0000000000e+01 0.0000e+00 -1.0000e+00
       -1  1    1    2    0  502 +2.2539000598e+01 -1.3361686497e+02 -3.5916098386e+02 3.8387248597e+02 0.0000000000e+00 0.0000e+00 1.0000e+00
<mgrwt>
<rscale>  1 0.10020836E+04</rscale>
<asrwt>0</asrwt>
<pdfrwt beam="1">  1       21 0.14516550E+00 0.10020836E+04</pdfrwt>
<pdfrwt beam="2">  1       -1 0.69414864E-01 0.10020836E+04</pdfrwt>
<totfact> 0.51298117E+01</totfact>
</mgrwt>
</event>
<event>
 6      1 +3.0741590e+01 9.92980700e+02 7.81860800e-03 9.31627700e-02
        2 -1    0    0  502    0 +0.0000000000e+00 +0.0000000000e+00 +5.4070371723e+02 5.4070371723e+02 0.0000000000e+00 0.0000e+00 1.0000e+00
       -2 -1    0    0    0  501 -0.0000000000e+00 -0.0000000000e+00 -5.2243003610e+02 5.2243003610e+02 0.0000000000e+00 0.0000e+00 -1.0000e+00
  5000001  2    1    2    0    0 +6.9427742433e-01 +2.3012930343e+01 +8.1035937093e+01 9.9628184417e+02 9.9271376183e+02 0.0000e+00 0.0000e+00
  5000521  1    3    3    0    0 +3.7617357056e+02 -2.8107209608e+02 +1.7996658837e+02 5.0298712837e+02 1.0000000000e+01 0.0000e+00 -1.0000e+00
 -5000521  1    3    3    0    0 -3.7547929314e+02 +3.0408502642e+02 -9.8930651276e+01 4.9329471579e+02 1.0000000000e+01 0.0000e+00 1.0000e+00
       21  1    1    2  502  501 -6.9427742433e-01 -2.3012930343e+01 -6.2762255966e+01 6.6851909158e+01 0.0000000000e+00 0.0000e+00 1.0000e+00
<mgrwt>
<rscale>  1 0.99298071E+03</rscale>
<asrwt>0</asrwt>
<pdfrwt beam="1">  1        2 0.83185188E-01 0.99298071E+03</pdfrwt>
<pdfrwt beam="2">  1       -2 0.80373851E-01 0.99298071E+03</pdfrwt>
<totfact> 0.76743140E+01</totfact>
</mgrwt>
</event>
<event>
 6      1 +3.0741590e+01 1.02991600e+03 7.81860800e-03 9.27632800e-02
        1 -1    0    0  502    0 -0.0000000000e+00 +0.0000000000e+00 +2.2199814489e+03 2.2199814489e+03 0.0000000000e+00 0.0000e+00 -1.0000e+00
       21 -1    0    0  501  502 +0.0000000000e+00 -0.0000000000e+00 -2.4384959900e+02 2.4384959900e+02 0.0000000000e+00 0.0000e+00 -1.0000e+00
  5000001  2    1    2    0    0 -3.0482354402e+01 -2.0412217630e+00 +2.0985508101e+03 2.3376575866e+03 1.0294630393e+03 0.0000e+00 0.0000e+00
  5000521  1    3    3    0    0 +4.0602489607e+02 -2.0469489317e+02 +5.3764247601e+02 7.0421278569e+02 1.0000000000e+01 0.0000e+00 -1.0000e+00
 -5000521  1    3    3    0    0 -4.3650725048e+02 +2.0265367141e+02 +1.5609083341e+03 1.6334448009e+03 1.0000000000e+01 0.0000e+00 1.0000e+00
        1  1    1    2  501    0 +3.0482354402e+01 +2.0412217630e+00 -1.2241896019e+02 1.2617346128e+02 0.0000000000e+00 0.0000e+00 -1.0000e+00
<mgrwt>
<rscale>  1 0.10299163E+04</rscale>
<asrwt>0</asrwt>
<pdfrwt beam="1">  1       21 0.37515324E-01 0.10299163E+04</pdfrwt>
<pdfrwt beam="2">  1        1 0.34153559E+00 0.10299163E+04</pdfrwt>
<totfact> 0.14506288E+02</totfact>
</mgrwt>
</event>
<event>
 6      1 +3.0741590e+01 9.89101300e+02 7.81860800e-03 9.32058000e-02
       -2 -1    0    0    0  501 -0.0000000000e+00 +0.0000000000e+00 +1.6706042306e+02 1.6706042306e+02 0.0000000000e+00 0.0000e+00 -1.0000e+00
        2 -1    0    0  502    0 +0.0000000000e+00 -0.0000000000e+00 -2.5411261510e+03 2.5411261510e+03 0.0000000000e+00 0.0000e+00 1.0000e+00
  5000001  2    1    2    0    0 +4.5927134200e+01 +1.0970878918e+01 -1.3020514215e+03 1.6351328312e+03 9.8797358751e+02 0.0000e+00 0.0000e+00
  5000521  1    3    3    0    0 +1.6076663136e+01 -1.9133839196e+02 -1.3964858565e+03 1.4096600962e+03 1.0000000000e+01 0.0000e+00 1.0000e+00
 -5000521  1    3    3    0    0 +2.9850471063e+01 +2.0230927088e+02 +9.4434435045e+01 2.2547273500e+02 1.0000000000e+01 0.0000e+00 -1.0000e+00
       21  1    1    2  502  501 -4.5927134200e+01 -1.0970878918e+01 -1.0720143064e+03 1.0730537429e+03 0.0000000000e+00 0.0000e+00 1.0000e+00
<mgrwt>
<rscale>  1 0.98910135E+03</rscale>
<asrwt>0</asrwt>
<pdfrwt beam="1">  1        2 0.39094248E+00 0.98910135E+03</pdfrwt>
<pdfrwt beam="2">  1       -2 0.25701604E-01 0.98910135E+03</pdfrwt>
<totfact> 0.45510711E+01</totfact>
</mgrwt>
</event>
<event>
 6      1 +3.0741590e+01 1.00285700e+03 7.81860800e-03 9.30541700e-02
       -2 -1    0    0    0  501 -0.0000000000e+00 +0.0000000000e+00 +3.0514965946e+02 3.0514965946e+02 0.0000000000e+00 0.0000e+00 -1.0000e+00
        2 -1    0    0  502    0 +0.0000000000e+00 -0.0000000000e+00 -9.5965502967e+02 9.5965502967e+02 0.0000000000e+00 0.0000e+00 1.0000e+00
  5000001  2    1    2    0    0 -4.8600428457e+01 -1.8533639578e+00 -5.3688841272e+02 1.1375286690e+03 1.0016770281e+03 0.0000e+00 0.0000e+00
  5000521  1    3    3    0    0 -1.4929142318e+02 -2.0657776516e+01 -8.2129714214e+02 8.3507105593e+02 1.0000000000e+01 0.0000e+00 1.0000e+00
 -5000521  1    3    3    0    0 +1.0069099472e+02 +1.8804412558e+01 +2.8440872942e+02 3.0245761310e+02 1.0000000000e+01 0.0000e+00 -1.0000e+00
       21  1    1    2  502  501 +4.8600428457e+01 +1.8533639578e+00 -1.1761695749e+02 1.2727602010e+02 0.0000000000e+00 0.0000e+00 1.0000e+00
<mgrwt>
<rscale>  1 0.10028571E+04</rscale>
<asrwt>0</asrwt>
<pdfrwt beam="1">  1        2 0.14763924E+00 0.10028571E+04</pdfrwt>
<pdfrwt beam="2">  1       -2 0.46946101E-01 0.10028571E+04</pdfrwt>
<totfact> 0.11479018E+02</totfact>
</mgrwt>
</event>
<event>
 6      1 +3.0741590e+01 1.00524600e+03 7.81860800e-03 9.30281000e-02
       -3 -1    0    0    0  501 -0.0000000000e+00 +0.0000000000e+00 +2.2266871511e+03 2.2266871511e+03 0.0000000000e+00 0.0000e+00 -1.0000e+00
        3 -1    0    0  502    0 +0.0000000000e+00 -0.0000000000e+00 -2.0597774909e+02 2.0597774909e+02 0.0000000000e+00 0.0000e+00 1.0000e+00
  5000001  2    1    2    0    0 +3.2527174853e+00 -4.5338457538e+01 +2.1073455037e+03 2.3348284549e+03 1.0042174497e+03 0.0000e+00 0.0000e+00
  5000521  1    3    3    0    0 -2.9367202995e+02 +3.6365560841e+02 +7.2224135350e+02 8.6036110756e+02 1.0000000000e+01 0.0000e+00 1.0000e+00
 -5000521  1    3    3    0    0 +2.9692474743e+02 -4.0899406595e+02 +1.3851041502e+03 1.4744673474e+03 1.0000000000e+01 0.0000e+00 -1.0000e+00
       21  1    1    2  502  501 -3.2527174853e+00 +4.5338457538e+01 -8.6636101685e+01 9.7836445245e+01 0.0000000000e+00 0.0000e+00 1.0000e+00
<mgrwt>
<rscale>  1 0.10052457E+04</rscale>
<asrwt>0</asrwt>
<pdfrwt beam="1">  1        3 0.31688886E-01 0.10052457E+04</pdfrwt>
<pdfrwt beam="2">  1       -3 0.34256724E+00 0.10052457E+04</pdfrwt>
<totfact> 0.56755504E-01</totfact>
</mgrwt>
</event>
<event>
 6      1 +3.0741590e+01 9.48752600e+02 7.81860800e-03 9.36661000e-02
        2 -1    0    0  502    0 +0.0000000000e+00 +0.0000000000e+00 +1.1650754828e+03 1.1650754828e+03 0.0000000000e+00 0.0000e+00 1.0000e+00
       -2 -1    0    0    0  501 -0.0000000000e+00 -0.0000000000e+00 -2.0597609530e+02 2.0597609530e+02 0.0000000000e+00 0.0000e+00 -1.0000e+00
  5000001  2    1    2    0    0 +1.5814785796e+01 +2.6659803971e+01 +9.2862344151e+02 1.3275816358e+03 9.4824609202e+02 0.0000e+00 0.0000e+00
  5000521  1    3    3    0    0 -1.2900817425e+02 +4.2094962075e+01 +1.0966130700e+03 1.1050227691e+03 1.0000000000e+01 0.0000e+00 1.0000e+00
 -5000521  1    3    3    0    0 +1.4482296004e+02 -1.5435158104e+01 -1.6798962853e+02 2.2255886672e+02 1.0000000000e+01 0.0000e+00 -1.0000e+00
       21  1    1    2  502  501 -1.5814785796e+01 -2.6659803971e+01 +3.0475945952e+01 4.3469942250e+01 0.0000000000e+00 0.0000e+00 1.0000e+00
<mgrwt>
<rscale>  1 0.94875260E+03</rscale>
<asrwt>0</asrwt>
<pdfrwt beam="1">  1        2 0.17924238E+00 0.94875260E+03</pdfrwt>
<pdfrwt beam="2">  1       -2 0.31688631E-01 0.94875260E+03</pdfrwt>
<totfact> 0.18385892E+02</totfact>
</mgrwt>
</event>
<event>
 6      1 +3.0741590e+01 1.13373800e+03 7.81860800e-03 9.17291800e-02
       -5 -1    0    0    0  501 -0.0000000000e+00 +0.0000000000e+00 +1.2939023491e+03 1.2939023491e+03 0.0000000000e+00 0.0000e+00 -1.0000e+00
        5 -1    0    0  502    0 +0.0000000000e+00 -0.0000000000e+00 -2.9794462455e+02 2.9794462455e+02 0.0000000000e+00 0.0000e+00 1.0000e+00
  5000001  2    1    2    0    0 -6.3173395056e+00 +2.6783213617e+01 +7.8471260332e+02 1.3788170449e+03 1.1334043074e+03 0.0000e+00 0.0000e+00
  5000521  1    3    3    0    0 -5.5928090984e+01 +8.7390307195e+01 -2.8641009153e+02 3.0478805370e+02 1.0000000000e+01 0.0000e+00 1.0000e+00
 -5000521  1    3    3    0    0 +4.9610751478e+01 -6.0607093578e+01 +1.0711226948e+03 1.0740289912e+03 1.0000000000e+01 0.0000e+00 -1.0000e+00
       21  1    1    2  502  501 +6.3173395056e+00 -2.6783213617e+01 +2.1124512126e+02 2.1302992880e+02 0.0000000000e+00 0.0000e+00 -1.0000e+00
<mgrwt>
<rscale>  1 0.11337383E+04</rscale>
<asrwt>0</asrwt>
<pdfrwt beam="1">  1        5 0.45837635E-01 0.11337383E+04</pdfrwt>
<pdfrwt beam="2">  1       -5 0.19906190E+00 0.11337383E+04</pdfrwt>
<totfact> 0.50462149E-01</totfact>
</mgrwt>
</event>
<event>
 6      1 +3.0741590e+01 9.98934300e+02 7.81860800e-03 9.30971400e-02
       -1 -1    0    0    0  501 -0.0000000000e+00 +0.0000000000e+00 +1.7613590101e+02 1.7613590101e+02 0.0000000000e+00 0.0000e+00 1.0000e+00
        1 -1    0    0  502    0 +0.0000000000e+00 -0.0000000000e+00 -1.5016795470e+03 1.5016795470e+03 0.0000000000e+00 0.0000e+00 -1.0000e+00
  5000001  2    1    2    0    0 +2.9008334856e+01 -3.4735577573e+00 -1.2791535262e+03 1.6229921655e+03 9.9850702375e+02 0.0000e+00 0.0000e+00
  5000521  1    3    3    0    0 -5.8922628404e+01 +4.5633018828e+02 -9.3417545803e+02 1.0413898901e+03 1.0000000000e+01 0.0000e+00 1.0000e+00
 -5000521  1    3    3    0    0 +8.7930963260e+01 -4.5980374603e+02 -3.4497806817e+02 5.8160227534e+02 1.0000000000e+01 0.0000e+00 -1.0000e+00
       21  1    1    2  502  501 -2.9008334856e+01 +3.4735577573e+00 -4.6390119791e+01 5.4823282543e+01 0.0000000000e+00 0.0000e+00 1.0000e+00
<mgrwt>
<rscale>  1 0.99893434E+03</rscale>
<asrwt>0</asrwt>
<pdfrwt beam="1">  1        1 0.23102763E+00 0.99893434E+03</pdfrwt>
<pdfrwt beam="2">  1       -1 0.27097830E-01 0.99893434E+03</pdfrwt>
<totfact> 0.79751535E+01</totfact>
</mgrwt>
</event>
<event>
 6      1 +3.0741590e+01 9.90143200e+02 7.81860800e-03 9.31942200e-02
        1 -1    0    0  502    0 +0.0000000000e+00 +0.0000000000e+00 +2.1857451605e+03 2.1857451605e+03 0.0000000000e+00 0.0000e+00 -1.0000e+00
       -1 -1    0    0    0  501 -0.0000000000e+00 -0.0000000000e+00 -1.2400674075e+02 1.2400674075e+02 0.0000000000e+00 0.0000e+00 1.0000e+00
  5000001  2    1    2    0    0 +1.7982738212e+01 -1.8721048567e+01 +1.8671624113e+03 2.1134519277e+03 9.8980287137e+02 0.0000e+00 0.0000e+00
  5000521  1    3    3    0    0 -1.2701429555e+02 +2.2205182128e+02 +1.8080279769e+03 1.8260626517e+03 1.0000000000e+01 0.0000e+00 -1.0000e+00
 -5000521  1    3    3    0    0 +1.4499703376e+02 -2.4077286985e+02 +5.9134434373e+01 2.8738927604e+02 1.0000000000e+01 0.0000e+00 1.0000e+00
       21  1    1    2  502  501 -1.7982738212e+01 +1.8721048567e+01 +1.9457600845e+02 1.9629997350e+02 0.0000000000e+00 0.0000e+00 -1.0000e+00
<mgrwt>
<rscale>  1 0.99014321E+03</rscale>
<asrwt>0</asrwt>
<pdfrwt beam="1">  1        1 0.33626846E+00 0.99014321E+03</pdfrwt>
<pdfrwt beam="2">  1       -1 0.19077962E-01 0.99014321E+03</pdfrwt>
<totfact> 0.49849595E+01</totfact>
</mgrwt>
</event>
<event>
 6      1 +3.0741590e+01 9.96054700e+02 7.81860800e-03 9.31288300e-02
        1 -1    0    0  502    0 +0.0000000000e+00 +0.0000000000e+00 +1.0033428963e+03 1.0033428963e+03 0.0000000000e+00 0.0000e+00 1.0000e+00
       -1 -1    0    0    0  501 -0.0000000000e+00 -0.0000000000e+00 -2.7169245381e+02 2.7169245381e+02 0.0000000000e+00 0.0000e+00 -1.0000e+00
  5000001  2    1    2    0    0 -4.5816355747e+01 +1.0829179130e+01 +7.1008676871e+02 1.2232530983e+03 9.9494146252e+02 0.0000e+00 0.0000e+00
  5000521  1    3    3    0    0 -1.6467206602e+02 +4.0075994246e+02 +6.9022181872e+02 8.1500403671e+02 1.0000000000e+01 0.0000e+00 1.0000e+00
 -5000521  1    3    3    0    0 +1.1885571028e+02 -3.8993076333e+02 +1.9864949986e+01 4.0824906160e+02 1.0000000000e+01 0.0000e+00 -1.0000e+00
       21  1    1    2  502  501 +4.5816355747e+01 -1.0829179130e+01 +2.1563673773e+01 5.1782251797e+01 0.0000000000e+00 0.0000e+00 1.0000e+00
<mgrwt>
<rscale>  1 0.99605468E+03</rscale>
<asrwt>0</asrwt>
<pdfrwt beam="1">  1        1 0.15436044E+00 0.99605468E+03</pdfrwt>
<pdfrwt beam="2">  1       -1 0.41798840E-01 0.99605468E+03</pdfrwt>
<totfact> 0.84670672E+01</totfact>
</mgrwt>
</event>
<event>
 6      1 +3.0741590e+01 1.00013300e+03 7.81860800e-03 9.30839900e-02
        2 -1    0    0  502    0 +0.0000000000e+00 +0.0000000000e+00 +7.7405299304e+02 7.7405299304e+02 0.0000000000e+00 0.0000e+00 -1.0000e+00
       -2 -1    0    0    0  501 -0.0000000000e+00 -0.0000000000e+00 -3.5836607525e+02 3.5836607525e+02 0.0000000000e+00 0.0000e+00 1.0000e+00
  5000001  2    1    2    0    0 +7.4655054092e+00 -3.4147105867e+01 +3.5291828662e+02 1.0605743770e+03 9.9952235266e+02 0.0000e+00 0.0000e+00
  5000521  1    3    3    0    0 +2.4104641607e+02 +4.1043708093e+02 +2.8184376537e+02 5.5326113199e+02 1.0000000000e+01 0.0000e+00 -1.0000e+00
 -5000521  1    3    3    0    0 -2.3358091066e+02 -4.4458418679e+02 +7.1074521251e+01 5.0731324499e+02 1.0000000000e+01 0.0000e+00 1.0000e+00
       21  1    1    2  502  501 -7.4655054092e+00 +3.4147105867e+01 +6.2768631169e+01 7.1844691307e+01 0.0000000000e+00 0.0000e+00 -1.0000e+00
<mgrwt>
<rscale>  1 0.10001333E+04</rscale>
<asrwt>0</asrwt>
<pdfrwt beam="1">  1        2 0.11908508E+00 0.10001333E+04</pdfrwt>
<pdfrwt beam="2">  1       -2 0.55133243E-01 0.10001333E+04</pdfrwt>
<totfact> 0.11111227E+02</totfact>
</mgrwt>
</event>
<event>
 6      1 +3.0741590e+01 1.01411200e+03 7.81860800e-03 9.29320100e-02
       -2 -1    0    0    0  501 -0.0000000000e+00 +0.0000000000e+00 +1.6587208156e+02 1.6587208156e+02 0.0000000000e+00 0.0000e+00 1.0000e+00
        2 -1    0    0  502    0 +0.0000000000e+00 -0.0000000000e+00 -2.3849608476e+03 2.3849608476e+03 0.0000000000e+00 0.0000e+00 -1.0000e+00
  5000001  2    1    2    0    0 -3.5191578609e+01 -2.1429101697e+01 -2.2694736016e+03 2.4857461773e+03 1.0132748769e+03 0.0000e+00 0.0000e+00
  5000521  1    3    3    0    0 +3.4083098908e+02 +2.9552313468e+02 -6.3590103685e+02 7.7972419157e+02 1.0000000000e+01 0.0000e+00 1.0000e+00
 -5000521  1    3    3    0    0 -3.7602256769e+02 -3.1695223638e+02 -1.6335725648e+03 1.7060219858e+03 1.0000000000e+01 0.0000e+00 -1.0000e+00
       21  1    1    2  502  501 +3.5191578609e+01 +2.1429101697e+01 +5.0384835591e+01 6.5086751817e+01 0.0000000000e+00 0.0000e+00 -1.0000e+00
<mgrwt>
<rscale>  1 0.10141122E+04</rscale>
<asrwt>0</asrwt>
<pdfrwt beam="1">  1        2 0.36691708E+00 0.10141122E+04</pdfrwt>
<pdfrwt beam="2">  1       -2 0.25518780E-01 0.10141122E+04</pdfrwt>
<totfact> 0.56447651E+01</totfact>
</mgrwt>
</event>
<event>
 6      1 +3.0741590e+01 1.00537400e+03 7.81860800e-03 9.30267100e-02
        1 -1    0    0  502    0 +0.0000000000e+00 +0.0000000000e+00 +3.3600928619e+03 3.3600928619e+03 0.0000000000e+00 0.0000e+00 1.0000e+00
       -1 -1    0    0    0  501 -0.0000000000e+00 -0.0000000000e+00 -1.0523626816e+02 1.0523626816e+02 0.0000000000e+00 0.0000e+00 -1.0000e+00
  5000001  2    1    2    0    0 +4.9362241864e+01 +5.1650714884e+01 +3.2399411072e+03 3.3923435218e+03 1.0028318726e+03 0.0000e+00 0.0000e+00
  5000521  1    3    3    0    0 +4.0806434769e+02 -8.0723000797e+01 +6.3310533254e+02 7.5759822914e+02 1.0000000000e+01 0.0000e+00 -1.0000e+00
 -5000521  1    3    3    0    0 -3.5870210583e+02 +1.3237371568e+02 +2.6068357746e+03 2.6347452927e+03 1.0000000000e+01 0.0000e+00 1.0000e+00
       21  1    1    2  502  501 -4.9362241864e+01 -5.1650714884e+01 +1.4915486555e+01 7.2985608232e+01 0.0000000000e+00 0.0000e+00 1.0000e+00
<mgrwt>
<rscale>  1 0.10053737E+04</rscale>
<asrwt>0</asrwt>
<pdfrwt beam="1">  1        1 0.51693728E+00 0.10053737E+04</pdfrwt>
<pdfrwt beam="2">  1       -1 0.16190198E-01 0.10053737E+04</pdfrwt>
<totfact> 0.96257095E+00</totfact>
</mgrwt>
</event>
<event>
 6      1 +3.0741590e+01 9.99995400e+02 7.81860800e-03 9.30855000e-02
       21 -1    0    0  501  502 +0.0000000000e+00 +0.0000000000e+00 +2.7479868689e+02 2.7479868689e+02 0.0000000000e+00 0.0000e+00 -1.0000e+00
        1 -1    0    0  502    0 -0.0000000000e+00 -0.0000000000e+00 -1.0312616025e+03 1.0312616025e+03 0.0000000000e+00 0.0000e+00 1.0000e+00
  5000001  2    1    2    0    0 +1.5308832572e+01 +2.2487456194e+01 -7.8145521313e+02 1.2691189714e+03 9.9962526352e+02 0.0000e+00 0.0000e+00
  5000521  1    3    3    0    0 +4.6151467742e+02 +6.6119100969e+01 -6.5340680571e+02 8.0275026424e+02 1.0000000000e+01 0.0000e+00 1.0000e+00
 -5000521  1    3    3    0    0 -4.4620584485e+02 -4.3631644776e+01 -1.2804840743e+02 4.6636870719e+02 1.0000000000e+01 0.0000e+00 -1.0000e+00
        1  1    1    2  501    0 -1.5308832572e+01 -2.2487456194e+01 +2.4992297489e+01 3.6941317987e+01 0.0000000000e+00 0.0000e+00 1.0000e+00
<mgrwt>
<rscale>  1 0.99999536E+03</rscale>
<asrwt>0</asrwt>
<pdfrwt beam="1">  1       21 0.42276721E-01 0.99999536E+03</pdfrwt>
<pdfrwt beam="2">  1        1 0.15865563E+00 0.99999536E+03</pdfrwt>
<totfact> 0.76047943E+02</totfact>
</mgrwt>
</event>
<event>
 6      1 +3.0741590e+01 9.75457900e+02 7.81860800e-03 9.33587900e-02
       -1 -1    0    0    0  501 -0.0000000000e+00 +0.0000000000e+00 +5.1544257502e+02 5.1544257502e+02 0.0000000000e+00 0.0000e+00 1.0000e+00
        1 -1    0    0  502    0 +0.0000000000e+00 -0.0000000000e+00 -6.6011237960e+02 6.6011237960e+02 0.0000000000e+00 0.0000e+00 -1.0000e+00
  5000001  2    1    2    0    0 -6.3870034046e+01 +1.2086707887e+02 -2.4527367273e+02 1.0058217219e+03 9.6583121180e+02 0.0000e+00 0.0000e+00
  5000521  1    3    3    0    0 -9.3288327575e+01 -2.3137975826e+01 +3.6522863026e+02 3.7779628154e+02 1.0000000000e+01 0.0000e+00 1.0000e+00
 -5000521  1    3    3    0    0 +2.9418293529e+01 +1.4400505470e+02 -6.1050230299e+02 6.2802544035e+02 1.0000000000e+01 0.0000e+00 -1.0000e+00
       21  1    1    2  502  501 +6.3870034046e+01 -1.2086707887e+02 +1.0060386815e+02 1.6973323272e+02 0.0000000000e+00 0.0000e+00 -1.0000e+00
<mgrwt>
<rscale>  1 0.97545792E+03</rscale>
<asrwt>0</asrwt>
<pdfrwt beam="1">  1        1 0.10155575E+00 0.97545792E+03</pdfrwt>
<pdfrwt beam="2">  1       -1 0.79298858E-01 0.97545792E+03</pdfrwt>
<totfact> 0.47519443E+01</totfact>
</mgrwt>
</event>
<event>
 6      1 +3.0741590e+01 1.00474400e+03 7.81860800e-03 9.30335700e-02
       -2 -1    0    0    0  501 -0.0000000000e+00 +0.0000000000e+00 +4.3878541229e+02 4.3878541229e+02 0.0000000000e+00 0.0000e+00 -1.0000e+00
        2 -1    0    0  502    0 +0.0000000000e+00 -0.0000000000e+00 -6.8304976199e+02 6.8304976199e+02 0.0000000000e+00 0.0000e+00 1.0000e+00
  5000001  2    1    2    0    0 +4.2512022693e+00 -3.9361131878e+01 -1.4523696799e+02 1.0151871844e+03 1.0039640786e+03 0.0000e+00 0.0000e+00
  5000521  1    3    3    0    0 +2.2070786103e+02 -2.4640321623e+02 +3.2092412908e+02 4.6099761552e+02 1.0000000000e+01 0.0000e+00 -1.0000e+00
 -5000521  1    3    3    0    0 -2.1645665876e+02 +2.0704208435e+02 -4.6616109707e+02 5.5418956886e+02 1.0000000000e+01 0.0000e+00 1.0000e+00
       21  1    1    2  502  501 -4.2512022693e+00 +3.9361131878e+01 -9.9027381707e+01 1.0664798991e+02 0.0000000000e+00 0.0000e+00 -1.0000e+00
<mgrwt>
<rscale>  1 0.10047444E+04</rscale>
<asrwt>0</asrwt>
<pdfrwt beam="1">  1        2 0.10508458E+00 0.10047444E+04</pdfrwt>
<pdfrwt beam="2">  1       -2 0.67505449E-01 0.10047444E+04</pdfrwt>
<totfact> 0.84844754E+01</totfact>
</mgrwt>
</event>
<event>
 6      1 +3.0741590e+01 9.94820400e+02 7.81860800e-03 9.31424400e-02
       21 -1    0    0  501  502 +0.0000000000e+00 +0.0000000000e+00 +2.6865359433e+02 2.6865359433e+02 0.0000000000e+00 0.0000e+00 1.0000e+00
        2 -1    0    0  502    0 -0.0000000000e+00 -0.0000000000e+00 -1.4560400691e+03 1.4560400691e+03 0.0000000000e+00 0.0000e+00 -1.0000e+00
  5000001  2    1    2    0    0 -2.4150328787e+01 -1.2506855206e+01 -1.2840190933e+03 1.6243067980e+03 9.9444853183e+02 0.0000e+00 0.0000e+00
  5000521  1    3    3    0    0 -4.3612615558e+02 +2.1671183667e+02 -4.3472757497e+02 6.5288445239e+02 1.0000000000e+01 0.0000e+00 1.0000e+00
 -5000521  1    3    3    0    0 +4.1197582679e+02 -2.2921869188e+02 -8.4929151829e+02 9.7142234564e+02 1.0000000000e+01 0.0000e+00 -1.0000e+00
        2  1    1    2  501    0 +2.4150328787e+01 +1.2506855206e+01 +9.6632618445e+01 1.0038686545e+02 0.0000000000e+00 0.0000e+00 -1.0000e+00
<mgrwt>
<rscale>  1 0.99482036E+03</rscale>
<asrwt>0</asrwt>
<pdfrwt beam="1">  1       21 0.41331321E-01 0.99482036E+03</pdfrwt>
<pdfrwt beam="2">  1        2 0.22400617E+00 0.99482036E+03</pdfrwt>
<totfact> 0.85231155E+02</totfact>
</mgrwt>
</event>
<event>
 6      1 +3.0741590e+01 1.00686900e+03 7.81860800e-03 9.30104300e-02
       -2 -1    0    0    0  501 -0.0000000000e+00 +0.0000000000e+00 +4.6767131556e+02 4.6767131556e+02 0.0000000000e+00 0.0000e+00 -1.0000e+00
        2 -1    0    0  502    0 +0.0000000000e+00 -0.0000000000e+00 -8.7012858420e+02 8.7012858420e+02 0.0000000000e+00 0.0000e+00 1.0000e+00
  5000001  2    1    2    0    0 -1.3941586138e+01 -7.4992655564e+01 -5.6764085739e+02 1.1558551713e+03 1.0039754817e+03 0.0000e+00 0.0000e+00
  5000521  1    3    3    0    0 -2.3731139601e+02 +1.2365704819e+02 -7.5625004098e+02 8.0226048683e+02 1.0000000000e+01 0.0000e+00 1.0000e+00
 -5000521  1    3    3    0    0 +2.2336980987e+02 -1.9864970375e+02 +1.8860918359e+02 3.5359468449e+02 1.0000000000e+01 0.0000e+00 -1.0000e+00
       21  1    1    2  502  501 +1.3941586138e+01 +7.4992655564e+01 +1.6518358876e+02 1.8194472844e+02 0.0000000000e+00 0.0000e+00 -1.0000e+00
<mgrwt>
<rscale>  1 0.10068689E+04</rscale>
<asrwt>0</asrwt>
<pdfrwt beam="1">  1        2 0.13386593E+00 0.10068689E+04</pdfrwt>
<pdfrwt beam="2">  1       -2 0.71949434E-01 0.10068689E+04</pdfrwt>
<totfact> 0.53591265E+01</totfact>
</mgrwt>
</event>
<event>
 6      1 +3.0741590e+01 1.00203400e+03 7.81860800e-03 9.30631700e-02
        1 -1    0    0  502    0 +0.0000000000e+00 +0.0000000000e+00 +9.3853968161e+02 9.3853968161e+02 0.0000000000e+00 0.0000e+00 1.0000e+00
       -1 -1    0    0    0  501 -0.0000000000e+00 -0.0000000000e+00 -2.9029461228e+02 2.9029461228e+02 0.0000000000e+00 0.0000e+00 -1.0000e+00
  5000001  2    1    2    0    0 -2.1224360202e+01 -3.6068211728e+01 +6.1969683157e+02 1.1781747317e+03 1.0011594009e+03 0.0000e+00 0.0000e+00
  5000521  1    3    3    0    0 +2.2451919596e+02 -1.2924675948e+02 -1.9349931191e+02 3.2350514354e+02 1.0000000000e+01 0.0000e+00 -1.0000e+00
 -5000521  1    3    3    0    0 -2.4574355616e+02 +9.3178547749e+01 +8.1319614347e+02 8.5466958815e+02 1.0000000000e+01 0.0000e+00 1.0000e+00
       21  1    1    2  502  501 +2.1224360202e+01 +3.6068211728e+01 +2.8548237757e+01 5.0659562200e+01 0.0000000000e+00 0.0000e+00 -1.0000e+00
<mgrwt>
<rscale>  1 0.10020337E+04</rscale>
<asrwt>0</asrwt>
<pdfrwt beam="1">  1        1 0.14439072E+00 0.10020337E+04</pdfrwt>
<pdfrwt beam="2">  1       -1 0.44660710E-01 0.10020337E+04</pdfrwt>
<totfact> 0.84254093E+01</totfact>
</mgrwt>
</event>
<event>
 6      1 +3.0741590e+01 1.00373000e+03 7.81860800e-03 9.30446300e-02
        2 -1    0    0  502    0 +0.0000000000e+00 +0.0000000000e+00 +3.5455852780e+03 3.5455852780e+03 0.0000000000e+00 0.0000e+00 -1.0000e+00
       -2 -1    0    0    0  501 -0.0000000000e+00 -0.0000000000e+00 -8.2500071136e+01 8.2500071136e+01 0.0000000000e+00 0.0000e+00 1.0000e+00
  5000001  2    1    2    0    0 +4.5007402500e+01 -5.3553600386e+01 +3.3264202418e+03 3.4745569574e+03 1.0012895539e+03 0.0000e+00 0.0000e+00
  5000521  1    3    3    0    0 +4.0533936505e+02 -3.5078500963e+02 +1.7299550427e+03 1.8111307445e+03 1.0000000000e+01 0.0000e+00 1.0000e+00
 -5000521  1    3    3    0    0 -3.6033196255e+02 +2.9723140924e+02 +1.5964651991e+03 1.6634262129e+03 1.0000000000e+01 0.0000e+00 -1.0000e+00
       21  1    1    2  502  501 -4.5007402500e+01 +5.3553600386e+01 +1.3666496503e+02 1.5352839171e+02 0.0000000000e+00 0.0000e+00 -1.0000e+00
<mgrwt>
<rscale>  1 0.10037303E+04</rscale>
<asrwt>0</asrwt>
<pdfrwt beam="1">  1        2 0.54547454E+00 0.10037303E+04</pdfrwt>
<pdfrwt beam="2">  1       -2 0.12692321E-01 0.10037303E+04</pdfrwt>
<totfact> 0.36430314E+01</totfact>
</mgrwt>
</event>
<event>
 6      1 +3.0741590e+01 1.01242300e+03 7.81860800e-03 9.29502300e-02
       -1 -1    0    0    0  501 -0.0000000000e+00 +0.0000000000e+00 +4.5728372096e+02 4.5728372096e+02 0.0000000000e+00 0.0000e+00 -1.0000e+00
        1 -1    0    0  502    0 +0.0000000000e+00 -0.0000000000e+00 -6.0015923590e+02 6.0015923590e+02 0.0000000000e+00 0.0000e+00 1.0000e+00
  5000001  2    1    2    0    0 +1.7793307519e+00 +2.9179182531e+01 -1.5775553480e+02 1.0246404310e+03 1.0120012912e+03 0.0000e+00 0.0000e+00
  5000521  1    3    3    0    0 +1.5508748598e+02 -4.6740631497e+02 -7.1679473804e+01 4.9775369265e+02 1.0000000000e+01 0.0000e+00 -1.0000e+00
 -5000521  1    3    3    0    0 -1.5330815522e+02 +4.9658549750e+02 -8.6076060997e+01 5.2688673836e+02 1.0000000000e+01 0.0000e+00 1.0000e+00
       21  1    1    2  502  501 -1.7793307519e+00 -2.9179182531e+01 +1.4880019859e+01 3.2802525849e+01 0.0000000000e+00 0.0000e+00 1.0000e+00
<mgrwt>
<rscale>  1 0.10124234E+04</rscale>
<asrwt>0</asrwt>
<pdfrwt beam="1">  1        1 0.92332190E-01 0.10124234E+04</pdfrwt>
<pdfrwt beam="2">  1       -1 0.70351342E-01 0.10124234E+04</pdfrwt>
<totfact> 0.70066539E+01</totfact>
</mgrwt>
</event>
<event>
 6      1 +3.0741590e+01 1.02740300e+03 7.81860800e-03 9.27899000e-02
       -1 -1    0    0    0  501 -0.0000000000e+00 +0.0000000000e+00 +1.2436691673e+03 1.2436691673e+03 0.0000000000e+00 0.0000e+00 -1.0000e+00
        1 -1    0    0  502    0 +0.0000000000e+00 -0.0000000000e+00 -2.4890364555e+02 2.4890364555e+02 0.0000000000e+00 0.0000e+00 1.0000e+00
  5000001  2    1    2    0    0 -1.9882061868e+01 +2.9979601138e+01 +1.0206925162e+03 1.4482300353e+03 1.0267730760e+03 0.0000e+00 0.0000e+00
  5000521  1    3    3    0    0 +4.9926770539e+02 -4.5293632949e+01 +5.3537648315e+02 7.3351737099e+02 1.0000000000e+01 0.0000e+00 -1.0000e+00
 -5000521  1    3    3    0    0 -5.1914976726e+02 +7.5273234087e+01 +4.8531603310e+02 7.1471266436e+02 1.0000000000e+01 0.0000e+00 1.0000e+00
       21  1    1    2  502  501 +1.9882061868e+01 -2.9979601138e+01 -2.5926994525e+01 4.4342777468e+01 0.0000000000e+00 0.0000e+00 1.0000e+00
<mgrwt>
<rscale>  1 0.10274030E+04</rscale>
<asrwt>0</asrwt>
<pdfrwt beam="1">  1        1 0.38292869E-01 0.10274030E+04</pdfrwt>
<pdfrwt beam="2">  1       -1 0.19133372E+00 0.10274030E+04</pdfrwt>
<totfact> 0.19383074E+01</totfact>
</mgrwt>
</event>
<event>
 6      1 +3.0741590e+01 9.91063300e+02 7.81860800e-03 9.31840100e-02
        2 -1    0    0  502    0 -0.0000000000e+00 +0.0000000000e+00 +1.7846743543e+03 1.7846743543e+03 0.0000000000e+00 0.0000e+00 -1.0000e+00
       21 -1    0    0  501  502 +0.0000000000e+00 -0.0000000000e+00 -1.4460801608e+02 1.4460801608e+02 0.0000000000e+00 0.0000e+00 1.0000e+00
  5000001  2    1    2    0    0 -1.9756177735e+01 -3.4843284124e+00 +1.6278106690e+03 1.9057738925e+03 9.9086028688e+02 0.0000e+00 0.0000e+00
  5000521  1    3    3    0    0 +2.9881101186e+01 -4.9533841856e+02 +8.3770210831e+02 9.7370316389e+02 1.0000000000e+01 0.0000e+00 1.0000e+00
 -5000521  1    3    3    0    0 -4.9637278921e+01 +4.9185409014e+02 +7.9010856072e+02 9.3207072863e+02 1.0000000000e+01 0.0000e+00 -1.0000e+00
        2  1    1    2  501    0 +1.9756177735e+01 +3.4843284124e+00 +1.2255669177e+01 2.3508477836e+01 0.0000000000e+00 0.0000e+00 -1.0000e+00
<mgrwt>
<rscale>  1 0.99106335E+03</rscale>
<asrwt>0</asrwt>
<pdfrwt beam="1">  1       21 0.22247388E-01 0.99106335E+03</pdfrwt>
<pdfrwt beam="2">  1        2 0.27456527E+00 0.99106335E+03</pdfrwt>
<totfact> 0.19589341E+03</totfact>
</mgrwt>
</event>
<event>
 6      1 +3.0741590e+01 9.97600000e+02 7.81860800e-03 9.31118100e-02
        2 -1    0    0  502    0 +0.0000000000e+00 +0.0000000000e+00 +1.6666013219e+03 1.6666013219e+03 0.0000000000e+00 0.0000e+00 -1.0000e+00
       -2 -1    0    0    0  501 -0.0000000000e+00 -0.0000000000e+00 -1.6698988391e+02 1.6698988391e+02 0.0000000000e+00 0.0000e+00 1.0000e+00
  5000001  2    1    2    0    0 +2.9841906279e+01 +3.5483530821e+01 +1.4761333268e+03 1.7816215797e+03 9.9652206926e+02 0.0000e+00 0.0000e+00
  5000521  1    3    3    0    0 -1.7009818282e+02 +6.4973592085e+01 +1.5541056983e+03 1.5647681876e+03 1.0000000000e+01 0.0000e+00 -1.0000e+00
 -5000521  1    3    3    0    0 +1.9994008910e+02 -2.9490061264e+01 -7.7972371523e+01 2.1685339210e+02 1.0000000000e+01 0.0000e+00 1.0000e+00
       21  1    1    2  502  501 -2.9841906279e+01 -3.5483530821e+01 +2.3478111201e+01 5.1969626085e+01 0.0000000000e+00 0.0000e+00 -1.0000e+00
<mgrwt>
<rscale>  1 0.99760005E+03</rscale>
<asrwt>0</asrwt>
<pdfrwt beam="1">  1        2 0.25640019E+00 0.99760005E+03</pdfrwt>
<pdfrwt beam="2">  1       -2 0.25690753E-01 0.99760005E+03</pdfrwt>
<totfact> 0.13960907E+02</totfact>
</mgrwt>
</event>
<event>
 6      1 +3.0741590e+01 1.00370700e+03 7.81860800e-03 9.30448900e-02
       -2 -1    0    0    0  501 -0.0000000000e+00 +0.0000000000e+00 +2.9874036197e+02 2.9874036197e+02 0.0000000000e+00 0.0000e+00 -1.0000e+00
        2 -1    0    0  502    0 +0.0000000000e+00 -0.0000000000e+00 -9.5112217710e+02 9.5112217710e+02 0.0000000000e+00 0.0000e+00 1.0000e+00
  5000001  2    1    2    0    0 +4.7486658540e+01 -2.5904694007e+01 -6.4984253002e+02 1.1957101256e+03 1.0022481503e+03 0.0000e+00 0.0000e+00
  5000521  1    3    3    0    0 -2.2227828184e+02 +1.9753802392e+01 -8.3554427679e+02 8.6488848170e+02 1.0000000000e+01 0.0000e+00 1.0000e+00
 -5000521  1    3    3    0    0 +2.6976494038e+02 -4.5658496399e+01 +1.8570174677e+02 3.3082164395e+02 1.0000000000e+01 0.0000e+00 -1.0000e+00
       21  1    1    2  502  501 -4.7486658540e+01 +2.5904694007e+01 -2.5392851122e+00 5.4152413425e+01 0.0000000000e+00 0.0000e+00 1.0000e+00
<mgrwt>
<rscale>  1 0.10037068E+04</rscale>
<asrwt>0</asrwt>
<pdfrwt beam="1">  1        2 0.14632649E+00 0.10037068E+04</pdfrwt>
<pdfrwt beam="2">  1       -2 0.45960057E-01 0.10037068E+04</pdfrwt>
<totfact> 0.12136164E+02</totfact>
</mgrwt>
</event>
<event>
 6      1 +3.0741590e+01 1.00927300e+03 7.81860800e-03 9.29843300e-02
       -2 -1    0    0    0  501 -0.0000000000e+00 +0.0000000000e+00 +6.9053099838e+01 6.9053099838e+01 0.0000000000e+00 0.0000e+00 1.0000e+00
        2 -1    0    0  502    0 +0.0000000000e+00 -0.0000000000e+00 -4.2719359981e+03 4.2719359981e+03 0.0000000000e+00 0.0000e+00 -1.0000e+00
  5000001  2    1    2    0    0 -7.9256555243e+00 -5.6654296542e+01 -3.7112084667e+03 3.8459979142e+03 1.0076503101e+03 0.0000e+00 0.0000e+00
  5000521  1    3    3    0    0 +2.0494307148e+02 +1.5738487785e+02 -2.1369090543e+02 3.3546306114e+02 1.0000000000e+01 0.0000e+00 1.0000e+00
 -5000521  1    3    3    0    0 -2.1286872701e+02 -2.1403917439e+02 -3.4975175613e+03 3.5105348531e+03 1.0000000000e+01 0.0000e+00 -1.0000e+00
       21  1    1    2  502  501 +7.9256555243e+00 +5.6654296542e+01 -4.9167443156e+02 4.9499118374e+02 0.0000000000e+00 0.0000e+00 -1.0000e+00
<mgrwt>
<rscale>  1 0.10092728E+04</rscale>
<asrwt>0</asrwt>
<pdfrwt beam="1">  1        2 0.65722093E+00 0.10092728E+04</pdfrwt>
<pdfrwt beam="2">  1       -2 0.10623554E-01 0.10092728E+04</pdfrwt>
<totfact> 0.13356367E+01</totfact>
</mgrwt>
</event>
<event>
 6      1 +3.0741590e+01 1.00378000e+03 7.81860800e-03 9.30440900e-02
       -1 -1    0    0    0  501 -0.0000000000e+00 +0.0000000000e+00 +2.9283330401e+02 2.9283330401e+02 0.0000000000e+00 0.0000e+00 1.0000e+00
        1 -1    0    0  502    0 +0.0000000000e+00 -0.0000000000e+00 -1.1417645214e+03 1.1417645214e+03 0.0000000000e+00 0.0000e+00 -1.0000e+00
  5000001  2    1    2    0    0 -1.0592177536e+01 -7.7638179373e+01 -8.9402374176e+02 1.3441919801e+03 1.0007166169e+03 0.0000e+00 0.0000e+00
  5000521  1    3    3    0    0 -6.1362421733e+01 -3.4038617179e+02 -9.9848779197e+02 1.0567430925e+03 1.0000000000e+01 0.0000e+00 -1.0000e+00
 -5000521  1    3    3    0    0 +5.0770244197e+01 +2.6274799242e+02 +1.0446405021e+02 2.8744888764e+02 1.0000000000e+01 0.0000e+00 1.0000e+00
       21  1    1    2  502  501 +1.0592177536e+01 +7.7638179373e+01 +4.5092524341e+01 9.0405845346e+01 0.0000000000e+00 0.0000e+00 -1.0000e+00
<mgrwt>
<rscale>  1 0.10037797E+04</rscale>
<asrwt>0</asrwt>
<pdfrwt beam="1">  1        1 0.17565608E+00 0.10037797E+04</pdfrwt>
<pdfrwt beam="2">  1       -1 0.45051278E-01 0.10037797E+04</pdfrwt>
<totfact> 0.57795815E+01</totfact>
</mgrwt>
</event>
<event>
 6      1 +3.0741590e+01 9.98536200e+02 7.81860800e-03 9.31015200e-02
       -2 -1    0    0    0  501 -0.0000000000e+00 +0.0000000000e+00 +1.4848114251e+03 1.4848114251e+03 0.0000000000e+00 0.0000e+00 -1.0000e+00
        2 -1    0    0  502    0 +0.0000000000e+00 -0.0000000000e+00 -1.8762599661e+02 1.8762599661e+02 0.0000000000e+00 0.0000e+00 1.0000e+00
  5000001  2    1    2    0    0 +7.5528577903e+00 -4.0665662888e+01 +1.2885844339e+03 1.6301914881e+03 9.9767915821e+02 0.0000e+00 0.0000e+00
  5000521  1    3    3    0    0 +6.1024409867e+01 -1.9178311500e+02 -1.0511034804e+02 2.2727280318e+02 1.0000000000e+01 0.0000e+00 1.0000e+00
 -5000521  1    3    3    0    0 -5.3471552077e+01 +1.5111745212e+02 +1.3936947820e+03 1.4029186849e+03 1.0000000000e+01 0.0000e+00 -1.0000e+00
       21  1    1    2  502  501 -7.5528577903e+00 +4.0665662888e+01 +8.6009945678e+00 4.2245933609e+01 0.0000000000e+00 0.0000e+00 -1.0000e+00
<mgrwt>
<rscale>  1 0.99853615E+03</rscale>
<asrwt>0</asrwt>
<pdfrwt beam="1">  1        2 0.28865539E-01 0.99853615E+03</pdfrwt>
<pdfrwt beam="2">  1       -2 0.22843252E+00 0.99853615E+03</pdfrwt>
<totfact> 0.16302077E+01</totfact>
</mgrwt>
</event>
<event>
 6      1 +3.0741590e+01 1.01081900e+03 7.81860800e-03 9.29675800e-02
       -5 -1    0    0    0  501 -0.0000000000e+00 +0.0000000000e+00 +2.4015345510e+02 2.4015345510e+02 0.0000000000e+00 0.0000e+00 1.0000e+00
        5 -1    0    0  502    0 +0.0000000000e+00 -0.0000000000e+00 -1.1618036942e+03 1.1618036942e+03 0.0000000000e+00 0.0000e+00 -1.0000e+00
  5000001  2    1    2    0    0 +1.3434444793e+01 -3.9414918165e+01 -8.5784087123e+02 1.3257622971e+03 1.0099607358e+03 0.0000e+00 0.0000e+00
  5000521  1    3    3    0    0 +2.1940011088e+01 +3.7060471493e+02 -8.3619749578e+02 9.1496200510e+02 1.0000000000e+01 0.0000e+00 -1.0000e+00
 -5000521  1    3    3    0    0 -8.5055662953e+00 -4.1001963309e+02 -2.1643375448e+01 4.1080029197e+02 1.0000000000e+01 0.0000e+00 1.0000e+00
       21  1    1    2  502  501 -1.3434444793e+01 +3.9414918165e+01 -6.3809367899e+01 7.6194852270e+01 0.0000000000e+00 0.0000e+00 1.0000e+00
<mgrwt>
<rscale>  1 0.10108188E+04</rscale>
<asrwt>0</asrwt>
<pdfrwt beam="1">  1        5 0.17873903E+00 0.10108188E+04</pdfrwt>
<pdfrwt beam="2">  1       -5 0.36946686E-01 0.10108188E+04</pdfrwt>
<totfact> 0.11189489E+00</totfact>
</mgrwt>
</event>
<event>
 6      1 +3.0741590e+01 9.96642600e+02 7.81860800e-03 9.31223500e-02
        2 -1    0    0  502    0 +0.0000000000e+00 +0.0000000000e+00 +2.7725383191e+03 2.7725383191e+03 0.0000000000e+00 0.0000e+00 1.0000e+00
       -2 -1    0    0    0  501 -0.0000000000e+00 -0.0000000000e+00 -9.3263451914e+01 9.3263451914e+01 0.0000000000e+00 0.0000e+00 -1.0000e+00
  5000001  2    1    2    0    0 +1.1888384495e+01 -1.6220462485e+01 +2.6345989957e+03 2.8168081941e+03 9.9643971064e+02 0.0000e+00 0.0000e+00
  5000521  1    3    3    0    0 +5.1424800311e+01 -3.8495394039e+02 +2.2467851182e+03 2.2801266223e+03 1.0000000000e+01 0.0000e+00 1.0000e+00
 -5000521  1    3    3    0    0 -3.9536415817e+01 +3.6873347791e+02 +3.8781387751e+02 5.3668157179e+02 1.0000000000e+01 0.0000e+00 -1.0000e+00
       21  1    1    2  502  501 -1.1888384495e+01 +1.6220462485e+01 +4.4675871466e+01 4.8993576930e+01 0.0000000000e+00 0.0000e+00 -1.0000e+00
<mgrwt>
<rscale>  1 0.99664263E+03</rscale>
<asrwt>0</asrwt>
<pdfrwt beam="1">  1        2 0.42654429E+00 0.99664263E+03</pdfrwt>
<pdfrwt beam="2">  1       -2 0.14348226E-01 0.99664263E+03</pdfrwt>
<totfact> 0.92501205E+01</totfact>
</mgrwt>
</event>
<event>
 6      1 +3.0741590e+01 1.00048000e+03 7.81860800e-03 9.30801800e-02
       -2 -1    0    0    0  501 -0.0000000000e+00 +0.0000000000e+00 +5.9531247641e+02 5.9531247641e+02 0.0000000000e+00 0.0000e+00 1.0000e+00
        2 -1    0    0  502    0 +0.0000000000e+00 -0.0000000000e+00 -4.7294161107e+02 4.7294161107e+02 0.0000000000e+00 0.0000e+00 -1.0000e+00
  5000001  2    1    2    0    0 -1.0570721048e+01 -1.9181791098e+01 +1.7093720732e+02 1.0149777248e+03 1.0002402570e+03 0.0000e+00 0.0000e+00
  5000521  1    3    3    0    0 -2.3565193521e+02 +7.2564218190e+01 -3.5682669889e+02 4.3384639375e+02 1.0000000000e+01 0.0000e+00 -1.0000e+00
 -5000521  1    3    3    0    0 +2.2508121416e+02 -9.1746009288e+01 +5.2776390620e+02 5.8113133101e+02 1.0000000000e+01 0.0000e+00 1.0000e+00
       21  1    1    2  502  501 +1.0570721048e+01 +1.9181791098e+01 -4.8566341967e+01 5.3276362726e+01 0.0000000000e+00 0.0000e+00 -1.0000e+00
<mgrwt>
<rscale>  1 0.10004800E+04</rscale>
<asrwt>0</asrwt>
<pdfrwt beam="1">  1        2 0.72760248E-01 0.10004800E+04</pdfrwt>
<pdfrwt beam="2">  1       -2 0.91586535E-01 0.10004800E+04</pdfrwt>
<totfact> 0.66545786E+01</totfact>
</mgrwt>
</event>
<event>
 6      1 +3.0741590e+01 1.01450700e+03 7.81860800e-03 9.29277500e-02
       21 -1    0    0  501  502 +0.0000000000e+00 +0.0000000000e+00 +2.1414481117e+02 2.1414481117e+02 0.0000000000e+00 0.0000e+00 1.0000e+00
        1 -1    0    0  502    0 -0.0000000000e+00 -0.0000000000e+00 -2.5696735602e+03 2.5696735602e+03 0.0000000000e+00 0.0000e+00 -1.0000e+00
  5000001  2    1    2    0    0 -1.3759198395e+01 +3.4446330742e+01 -2.4664038953e+03 2.6669031744e+03 1.0138286353e+03 0.0000e+00 0.0000e+00
  5000521  1    3    3    0    0 +6.1894808121e+01 +2.7902931064e+02 -2.3790975526e+03 2.3962248409e+03 1.0000000000e+01 0.0000e+00 -1.0000e+00
 -5000521  1    3    3    0    0 -7.5654006516e+01 -2.4458297990e+02 -8.7306342688e+01 2.7067833351e+02 1.0000000000e+01 0.0000e+00 1.0000e+00
        1  1    1    2  501    0 +1.3759198395e+01 -3.4446330742e+01 +1.1087514621e+02 1.1691519700e+02 0.0000000000e+00 0.0000e+00 -1.0000e+00
<mgrwt>
<rscale>  1 0.10145070E+04</rscale>
<asrwt>0</asrwt>
<pdfrwt beam="1">  1       21 0.32945355E-01 0.10145070E+04</pdfrwt>
<pdfrwt beam="2">  1        1 0.39533440E+00 0.10145070E+04</pdfrwt>
<totfact> 0.10959662E+02</totfact>
</mgrwt>
</event>
<event>
 6      1 +3.0741590e+01 1.00291400e+03 7.81860800e-03 9.30535500e-02
       -1 -1    0    0    0  501 -0.0000000000e+00 +0.0000000000e+00 +2.2190250713e+02 2.2190250713e+02 0.0000000000e+00 0.0000e+00 -1.0000e+00
        1 -1    0    0  502    0 +0.0000000000e+00 -0.0000000000e+00 -2.3879910652e+03 2.3879910652e+03 0.0000000000e+00 0.0000e+00 1.0000e+00
  5000001  2    1    2    0    0 +4.7047236260e+00 -2.5363893032e+01 -9.1210419609e+02 1.3556438996e+03 1.0025820946e+03 0.0000e+00 0.0000e+00
  5000521  1    3    3    0    0 -6.1451960939e+01 +1.0037219797e+02 +2.0117756637e+02 2.3328809408e+02 1.0000000000e+01 0.0000e+00 -1.0000e+00
 -5000521  1    3    3    0    0 +6.6156684565e+01 -1.2573609100e+02 -1.1132817625e+03 1.1223558055e+03 1.0000000000e+01 0.0000e+00 1.0000e+00
       21  1    1    2  502  501 -4.7047236260e+00 +2.5363893032e+01 -1.2539843620e+03 1.2542496728e+03 0.0000000000e+00 0.0000e+00 1.0000e+00
<mgrwt>
<rscale>  1 0.10029139E+04</rscale>
<asrwt>0</asrwt>
<pdfrwt beam="1">  1        1 0.36738323E+00 0.10029139E+04</pdfrwt>
<pdfrwt beam="2">  1       -1 0.34138848E-01 0.10029139E+04</pdfrwt>
<totfact> 0.13332988E+01</totfact>
</mgrwt>
</event>
<event>
 6      1 +3.0741590e+01 9.82356700e+02 7.81860800e-03 9.32811000e-02
       -1 -1    0    0    0  501 -0.0000000000e+00 +0.0000000000e+00 +5.9293723804e+02 5.9293723804e+02 0.0000000000e+00 0.0000e+00 1.0000e+00
        1 -1    0    0  502    0 +0.0000000000e+00 -0.0000000000e+00 -4.2841896716e+02 4.2841896716e+02 0.0000000000e+00 0.0000e+00 -1.0000e+00
  5000001  2    1    2    0    0 +8.2201488588e+00 -2.1536386987e+01 +1.4906037566e+02 9.9360132569e+02 9.8208615305e+02 0.0000e+00 0.0000e+00
  5000521  1    3    3    0    0 -3.7209781336e+02 -1.6582796662e+02 -2.0325280085e+02 4.5537610640e+02 1.0000000000e+01 0.0000e+00 -1.0000e+00
 -5000521  1    3    3    0    0 +3.8031796222e+02 +1.4429157964e+02 +3.5231317651e+02 5.3822521929e+02 1.0000000000e+01 0.0000e+00 1.0000e+00
       21  1    1    2  502  501 -8.2201488588e+00 +2.1536386987e+01 +1.5457895227e+01 2.7754879510e+01 0.0000000000e+00 0.0000e+00 1.0000e+00
<mgrwt>
<rscale>  1 0.98235666E+03</rscale>
<asrwt>0</asrwt>
<pdfrwt beam="1">  1        1 0.65910611E-01 0.98235666E+03</pdfrwt>
<pdfrwt beam="2">  1       -1 0.91221113E-01 0.98235666E+03</pdfrwt>
<totfact> 0.64429023E+01</totfact>
</mgrwt>
</event>
<event>
 6      1 +3.0741590e+01 9.98567300e+02 7.81860800e-03 9.31011800e-02
       -2 -1    0    0    0  501 -0.0000000000e+00 +0.0000000000e+00 +1.7010914847e+03 1.7010914847e+03 0.0000000000e+00 0.0000e+00 -1.0000e+00
        2 -1    0    0  502    0 +0.0000000000e+00 -0.0000000000e+00 -1.6358706581e+02 1.6358706581e+02 0.0000000000e+00 0.0000e+00 1.0000e+00
  5000001  2    1    2    0    0 +4.0434422043e+01 -2.3276745929e+01 +1.5106206400e+03 1.8108316662e+03 9.9747674448e+02 0.0000e+00 0.0000e+00
  5000521  1    3    3    0    0 -1.5244436720e+02 -9.4864243240e+01 -8.7153353278e+01 1.9983547414e+02 1.0000000000e+01 0.0000e+00 1.0000e+00
 -5000521  1    3    3    0    0 +1.9287878924e+02 +7.1587497312e+01 +1.5977739933e+03 1.6109961920e+03 1.0000000000e+01 0.0000e+00 -1.0000e+00
       21  1    1    2  502  501 -4.0434422043e+01 +2.3276745929e+01 +2.6883778909e+01 5.3846884361e+01 0.0000000000e+00 0.0000e+00 1.0000e+00
<mgrwt>
<rscale>  1 0.99856728E+03</rscale>
<asrwt>0</asrwt>
<pdfrwt beam="1">  1        2 0.25167242E-01 0.99856728E+03</pdfrwt>
<pdfrwt beam="2">  1       -2 0.26170637E+00 0.99856728E+03</pdfrwt>
<totfact> 0.11934135E+01</totfact>
</mgrwt>
</event>
<event>
 6      1 +3.0741590e+01 1.01491900e+03 7.81860800e-03 9.29233100e-02
       -2 -1    0    0    0  501 -0.0000000000e+00 +0.0000000000e+00 +4.7047639235e+02 4.7047639235e+02 0.0000000000e+00 0.0000e+00 -1.0000e+00
        2 -1    0    0  502    0 +0.0000000000e+00 -0.0000000000e+00 -1.6313157679e+03 1.6313157679e+03 0.0000000000e+00 0.0000e+00 1.0000e+00
  5000001  2    1    2    0    0 -8.0397893320e+01 +2.0884683868e+01 -1.4673942843e+03 1.7841824888e+03 1.0115142987e+03 0.0000e+00 0.0000e+00
  5000521  1    3    3    0    0 -5.0969493333e+02 -1.1581211541e+02 -5.3188767194e+02 7.4579210689e+02 1.0000000000e+01 0.0000e+00 -1.0000e+00
 -5000521  1    3    3    0    0 +4.2929704001e+02 +1.3669679928e+02 -9.3550661240e+02 1.0383903820e+03 1.0000000000e+01 0.0000e+00 1.0000e+00
       21  1    1    2  502  501 +8.0397893320e+01 -2.0884683868e+01 +3.0655490879e+02 3.1760967141e+02 0.0000000000e+00 0.0000e+00 -1.0000e+00
<mgrwt>
<rscale>  1 0.10149193E+04</rscale>
<asrwt>0</asrwt>
<pdfrwt beam="1">  1        2 0.25097166E+00 0.10149193E+04</pdfrwt>
<pdfrwt beam="2">  1       -2 0.72380981E-01 0.10149193E+04</pdfrwt>
<totfact> 0.18452560E+01</totfact>
</mgrwt>
</event>
<event>
 6      1 +3.0741590e+01 1.01252300e+03 7.81860800e-03 9.29491600e-02
       -2 -1    0    0    0  501 -0.0000000000e+00 +0.0000000000e+00 +9.6249370917e+01 9.6249370917e+01 0.0000000000e+00 0.0000e+00 1.0000e+00
        2 -1    0    0  502    0 +0.0000000000e+00 -0.0000000000e+00 -3.2721097241e+03 3.2721097241e+03 0.0000000000e+00 0.0000e+00 -1.0000e+00
  5000001  2    1    2    0    0 +2.6186270489e+01 -4.8011377016e+00 -3.1835178948e+03 3.3406569358e+03 1.0121728133e+03 0.0000e+00 0.0000e+00
  5000521  1    3    3    0    0 +1.9661363645e+02 -4.5962965089e+02 -1.9944695657e+03 2.0561919138e+03 1.0000000000e+01 0.0000e+00 -1.0000e+00
 -5000521  1    3    3    0    0 -1.7042736596e+02 +4.5482851319e+02 -1.1890483292e+03 1.2844650219e+03 1.0000000000e+01 0.0000e+00 1.0000e+00
       21  1    1    2  502  501 -2.6186270489e+01 +4.8011377016e+00 +7.6575416386e+00 2.7702159289e+01 0.0000000000e+00 0.0000e+00 1.0000e+00
<mgrwt>
<rscale>  1 0.10125229E+04</rscale>
<asrwt>0</asrwt>
<pdfrwt beam="1">  1        2 0.50340141E+00 0.10125229E+04</pdfrwt>
<pdfrwt beam="2">  1       -2 0.14807598E-01 0.10125229E+04</pdfrwt>
<totfact> 0.42879954E+01</totfact>
</mgrwt>
</event>
<event>
 5      1 +3.0741590e+01 8.46453800e+02 7.81860800e-03 9.49510900e-02
       -2 -1    0    0    0  501 -0.0000000000e+00 +0.0000000000e+00 +1.1423934421e+02 1.1423934421e+02 0.0000000000e+00 0.0000e+00 1.0000e+00
        2 -1    0    0  502    0 +0.0000000000e+00 -0.0000000000e+00 -1.9642035169e+03 1.9642035169e+03 0.0000000000e+00 0.0000e+00 -1.0000e+00
  5000521  1    1    2    0    0 -1.9863317662e+02 -2.0591832560e+02 -1.2810345215e+03 1.3126335898e+03 1.0000000000e+01 0.0000e+00 -1.0000e+00
 -5000521  1    1    2    0    0 +2.1682004296e+02 +2.7391209319e+02 -2.2705504931e+02 4.1676463531e+02 1.0000000000e+01 0.0000e+00 1.0000e+00
       21  1    1    2  502  501 -1.8186866337e+01 -6.7993767599e+01 -3.4187460188e+02 3.4904463604e+02 0.0000000000e+00 0.0000e+00 -1.0000e+00
<mgrwt>
<rscale>  1 0.84645382E+03</rscale>
<asrwt>0</asrwt>
<pdfrwt beam="1">  1        2 0.30218511E+00 0.84645382E+03</pdfrwt>
<pdfrwt beam="2">  1       -2 0.17575286E-01 0.84645382E+03</pdfrwt>
<totfact> 0.18972420E+02</totfact>
</mgrwt>
</event>
<event>
 6      1 +3.0741590e+01 9.99993700e+02 7.81860800e-03 9.30855200e-02
        2 -1    0    0  502    0 +0.0000000000e+00 +0.0000000000e+00 +7.9692154753e+02 7.9692154753e+02 0.0000000000e+00 0.0000e+00 1.0000e+00
       -2 -1    0    0    0  501 -0.0000000000e+00 -0.0000000000e+00 -3.4759114136e+02 3.4759114136e+02 0.0000000000e+00 0.0000e+00 -1.0000e+00
  5000001  2    1    2    0    0 -1.4215606024e+01 +2.5955666704e+01 +4.7337950273e+02 1.1063795126e+03 9.9955574743e+02 0.0000e+00 0.0000e+00
  5000521  1    3    3    0    0 +1.0130981974e+02 +1.3165468181e+02 -2.8603425197e+02 3.3092631826e+02 1.0000000000e+01 0.0000e+00 -1.0000e+00
 -5000521  1    3    3    0    0 -1.1552542576e+02 -1.0569901510e+02 +7.5941375470e+02 7.7545319434e+02 1.0000000000e+01 0.0000e+00 1.0000e+00
       21  1    1    2  502  501 +1.4215606024e+01 -2.5955666704e+01 -2.4049096556e+01 3.8133176289e+01 0.0000000000e+00 0.0000e+00 1.0000e+00
<mgrwt>
<rscale>  1 0.99999374E+03</rscale>
<asrwt>0</asrwt>
<pdfrwt beam="1">  1        2 0.12260331E+00 0.99999374E+03</pdfrwt>
<pdfrwt beam="2">  1       -2 0.53475560E-01 0.99999374E+03</pdfrwt>
<totfact> 0.11390160E+02</totfact>
</mgrwt>
</event>
<event>
 6      1 +3.0741590e+01 1.13428600e+03 7.81860800e-03 9.17240400e-02
       -2 -1    0    0    0  501 -0.0000000000e+00 +0.0000000000e+00 +5.6365098665e+02 5.6365098665e+02 0.0000000000e+00 0.0000e+00 1.0000e+00
        2 -1    0    0  502    0 +0.0000000000e+00 -0.0000000000e+00 -1.2474714959e+03 1.2474714959e+03 0.0000000000e+00 0.0000e+00 -1.0000e+00
  5000001  2    1    2    0    0 -5.2837814417e+02 +1.0023727273e+02 -3.9799066416e+02 1.2020825213e+03 9.9868655999e+02 0.0000e+00 0.0000e+00
  5000521  1    3    3    0    0 -4.7427430472e+02 +3.3430633821e+02 +1.5363160717e+02 6.0033283653e+02 1.0000000000e+01 0.0000e+00 1.0000e+00
 -5000521  1    3    3    0    0 -5.4103839444e+01 -2.3406906548e+02 -5.5162227133e+02 6.0174968474e+02 1.0000000000e+01 0.0000e+00 -1.0000e+00
       21  1    1    2  502  501 +5.2837814417e+02 -1.0023727273e+02 -2.8582984508e+02 6.0903996127e+02 0.0000000000e+00 0.0000e+00 -1.0000e+00
<mgrwt>
<rscale>  1 0.11342865E+04</rscale>
<asrwt>0</asrwt>
<pdfrwt beam="1">  1        2 0.19191869E+00 0.11342865E+04</pdfrwt>
<pdfrwt beam="2">  1       -2 0.86715537E-01 0.11342865E+04</pdfrwt>
<totfact> 0.20122585E+01</totfact>
</mgrwt>
</event>
<event>
 6      1 +3.0741590e+01 1.01307400e+03 7.81860800e-03 9.29432000e-02
        4 -1    0    0  502    0 +0.0000000000e+00 +0.0000000000e+00 +4.8244656007e+02 4.8244656007e+02 0.0000000000e+00 0.0000e+00 -1.0000e+00
       -4 -1    0    0    0  501 -0.0000000000e+00 -0.0000000000e+00 -5.5820128594e+02 5.5820128594e+02 0.0000000000e+00 0.0000e+00 1.0000e+00
  5000001  2    1    2    0    0 -2.2753777413e+01 +7.5259044179e+00 -8.0310963085e+01 1.0162524997e+03 1.0127906589e+03 0.0000e+00 0.0000e+00
  5000521  1    3    3    0    0 +2.9939530155e+02 +3.7143769779e+02 +1.1748594492e+02 4.9143306481e+02 1.0000000000e+01 0.0000e+00 -1.0000e+00
 -5000521  1    3    3    0    0 -3.2214907897e+02 -3.6391179337e+02 -1.9779690801e+02 5.2481943490e+02 1.0000000000e+01 0.0000e+00 1.0000e+00
       21  1    1    2  502  501 +2.2753777413e+01 -7.5259044179e+00 +4.5562372064e+00 2.4395346305e+01 0.0000000000e+00 0.0000e+00 -1.0000e+00
<mgrwt>
<rscale>  1 0.10130742E+04</rscale>
<asrwt>0</asrwt>
<pdfrwt beam="1">  1        4 0.74222548E-01 0.10130742E+04</pdfrwt>
<pdfrwt beam="2">  1       -4 0.85877121E-01 0.10130742E+04</pdfrwt>
<totfact> 0.38401925E+00</totfact>
</mgrwt>
</event>
<event>
 5      1 +3.0741590e+01 3.75958200e+02 7.81860800e-03 1.05243800e-01
        5 -1    0    0  502    0 -0.0000000000e+00 +0.0000000000e+00 +2.9556910999e+02 2.9556910999e+02 0.0000000000e+00 0.0000e+00 -1.0000e+00
       21 -1    0    0  501  502 +0.0000000000e+00 -0.0000000000e+00 -1.4274765100e+02 1.4274765100e+02 0.0000000000e+00 0.0000e+00 1.0000e+00
  5000521  1    1    2    0    0 -1.4799314547e+02 -5.3321929946e+01 +1.7908053773e+02 2.3856872870e+02 1.0000000000e+01 0.0000e+00 -1.0000e+00
 -5000521  1    1    2    0    0 +1.6082402063e+02 +2.1947831392e+01 -3.0910198168e+01 1.6553402450e+02 1.0000000000e+01 0.0000e+00 1.0000e+00
        5  1    1    2  501    0 -1.2830875161e+01 +3.1374098554e+01 +4.6511194357e+00 3.4214007796e+01 0.0000000000e+00 0.0000e+00 -1.0000e+00
<mgrwt>
<rscale>  1 0.37595822E+03</rscale>
<asrwt>0</asrwt>
<pdfrwt beam="1">  1       21 0.21961177E-01 0.37595822E+03</pdfrwt>
<pdfrwt beam="2">  1        5 0.45472171E-01 0.37595822E+03</pdfrwt>
<totfact> 0.26548986E+03</totfact>
</mgrwt>
</event>
<event>
 6      1 +3.0741590e+01 1.01189100e+03 7.81860800e-03 9.29559800e-02
        1 -1    0    0  502    0 -0.0000000000e+00 +0.0000000000e+00 +4.3080668127e+02 4.3080668127e+02 0.0000000000e+00 0.0000e+00 -1.0000e+00
       21 -1    0    0  501  502 +0.0000000000e+00 -0.0000000000e+00 -8.0161479289e+02 8.0161479289e+02 0.0000000000e+00 0.0000e+00 1.0000e+00
  5000001  2    1    2    0    0 -1.2189184652e+02 +8.4261058263e+01 -2.5279886655e+02 1.0429914604e+03 1.0009827028e+03 0.0000e+00 0.0000e+00
  5000521  1    3    3    0    0 +1.7880732787e+02 -6.6079030756e+01 +3.2356146325e+02 3.7567342108e+02 1.0000000000e+01 0.0000e+00 -1.0000e+00
 -5000521  1    3    3    0    0 -3.0069917439e+02 +1.5034008902e+02 -5.7636032980e+02 6.6731803933e+02 1.0000000000e+01 0.0000e+00 1.0000e+00
        1  1    1    2  501    0 +1.2189184652e+02 -8.4261058263e+01 -1.1800924508e+02 1.8943001375e+02 0.0000000000e+00 0.0000e+00 -1.0000e+00
<mgrwt>
<rscale>  1 0.10118913E+04</rscale>
<asrwt>0</asrwt>
<pdfrwt beam="1">  1       21 0.12332535E+00 0.10118913E+04</pdfrwt>
<pdfrwt beam="2">  1        1 0.66277951E-01 0.10118913E+04</pdfrwt>
<totfact> 0.23949565E+02</totfact>
</mgrwt>
</event>
<event>
 6      1 +3.0741590e+01 9.99274600e+02 7.81860800e-03 9.30934100e-02
        3 -1    0    0  502    0 +0.0000000000e+00 +0.0000000000e+00 +1.7925086581e+02 1.7925086581e+02 0.0000000000e+00 0.0000e+00 -1.0000e+00
       -3 -1    0    0    0  501 -0.0000000000e+00 -0.0000000000e+00 -1.9874400632e+03 1.9874400632e+03 0.0000000000e+00 0.0000e+00 1.0000e+00
  5000001  2    1    2    0    0 +7.0715898928e+00 -1.0531582658e+02 -1.8025301749e+03 2.0609863631e+03 9.9368421881e+02 0.0000e+00 0.0000e+00
  5000521  1    3    3    0    0 +5.9573880298e+01 +1.0856230023e+02 -1.8340821036e+03 1.8382850658e+03 1.0000000000e+01 0.0000e+00 1.0000e+00
 -5000521  1    3    3    0    0 -5.2502290405e+01 -2.1387812680e+02 +3.1551928712e+01 2.2270129732e+02 1.0000000000e+01 0.0000e+00 -1.0000e+00
       21  1    1    2  502  501 -7.0715898928e+00 +1.0531582658e+02 -5.6590224325e+00 1.0570456587e+02 0.0000000000e+00 0.0000e+00 1.0000e+00
<mgrwt>
<rscale>  1 0.99927462E+03</rscale>
<asrwt>0</asrwt>
<pdfrwt beam="1">  1        3 0.27577056E-01 0.99927462E+03</pdfrwt>
<pdfrwt beam="2">  1       -3 0.30576001E+00 0.99927462E+03</pdfrwt>
<totfact> 0.11842189E+00</totfact>
</mgrwt>
</event>
<event>
 6      1 +3.0741590e+01 9.89583100e+02 7.81860800e-03 9.32004400e-02
       -1 -1    0    0    0  501 -0.0000000000e+00 +0.0000000000e+00 +1.8004145932e+03 1.8004145932e+03 0.0000000000e+00 0.0000e+00 -1.0000e+00
        1 -1    0    0  502    0 +0.0000000000e+00 -0.0000000000e+00 -1.7848120233e+02 1.7848120233e+02 0.0000000000e+00 0.0000e+00 1.0000e+00
  5000001  2    1    2    0    0 +1.0691215880e+01 -1.9529188848e+01 +1.6612828489e+03 1.9336843903e+03 9.8933256584e+02 0.0000e+00 0.0000e+00
  5000521  1    3    3    0    0 +4.1012248182e+02 -2.0301589420e+02 +4.3697218334e+02 6.3281955754e+02 1.0000000000e+01 0.0000e+00 1.0000e+00
 -5000521  1    3    3    0    0 -3.9943126594e+02 +1.8348670536e+02 +1.2243106655e+03 1.3008648327e+03 1.0000000000e+01 0.0000e+00 -1.0000e+00
       21  1    1    2  502  501 -1.0691215880e+01 +1.9529188848e+01 -3.9349458049e+01 4.5211405229e+01 0.0000000000e+00 0.0000e+00 1.0000e+00
<mgrwt>
<rscale>  1 0.98958305E+03</rscale>
<asrwt>0</asrwt>
<pdfrwt beam="1">  1        1 0.27458648E-01 0.98958305E+03</pdfrwt>
<pdfrwt beam="2">  1       -1 0.27698685E+00 0.98958305E+03</pdfrwt>
<totfact> 0.81393509E+00</totfact>
</mgrwt>
</event>
<event>
 6      1 +3.0741590e+01 1.06711200e+03 7.81860800e-03 9.23785300e-02
        2 -1    0    0  502    0 +0.0000000000e+00 +0.0000000000e+00 +1.0154180691e+03 1.0154180691e+03 0.0000000000e+00 0.0000e+00 -1.0000e+00
       -2 -1    0    0    0  501 -0.0000000000e+00 -0.0000000000e+00 -5.0383040005e+02 5.0383040005e+02 0.0000000000e+00 0.0000e+00 1.0000e+00
  5000001  2    1    2    0    0 +1.3067104493e+02 -3.3589118486e+02 +4.2462333424e+02 1.1484916680e+03 1.0044054587e+03 0.0000e+00 0.0000e+00
  5000521  1    3    3    0    0 +3.0673153289e+02 +1.8727430201e+02 +4.7318612339e+02 5.9427351012e+02 1.0000000000e+01 0.0000e+00 -1.0000e+00
 -5000521  1    3    3    0    0 -1.7606048797e+02 -5.2316548687e+02 -4.8562789149e+01 5.5421815792e+02 1.0000000000e+01 0.0000e+00 1.0000e+00
       21  1    1    2  502  501 -1.3067104493e+02 +3.3589118486e+02 +8.6964334825e+01 3.7075680113e+02 0.0000000000e+00 0.0000e+00 -1.0000e+00
<mgrwt>
<rscale>  1 0.10671121E+04</rscale>
<asrwt>0</asrwt>
<pdfrwt beam="1">  1        2 0.15621816E+00 0.10671121E+04</pdfrwt>
<pdfrwt beam="2">  1       -2 0.77512369E-01 0.10671121E+04</pdfrwt>
<totfact> 0.36218553E+01</totfact>
</mgrwt>
</event>
<event>
 6      1 +3.0741590e+01 9.98348400e+02 7.81860800e-03 9.31035800e-02
        1 -1    0    0  502    0 +0.0000000000e+00 +0.0000000000e+00 +1.8056552584e+03 1.8056552584e+03 0.0000000000e+00 0.0000e+00 -1.0000e+00
       -1 -1    0    0    0  501 -0.0000000000e+00 -0.0000000000e+00 -1.6081107259e+02 1.6081107259e+02 0.0000000000e+00 0.0000e+00 1.0000e+00
  5000001  2    1    2    0    0 -4.3160370905e+01 +6.0184497879e+01 +1.4741541222e+03 1.7804015863e+03 9.9559752969e+02 0.0000e+00 0.0000e+00
  5000521  1    3    3    0    0 -2.3457788102e+02 -1.2104797105e+02 -1.8321979613e+01 2.6479253860e+02 1.0000000000e+01 0.0000e+00 1.0000e+00
 -5000521  1    3    3    0    0 +1.9141751012e+02 +1.8123246893e+02 +1.4924761019e+03 1.5156090477e+03 1.0000000000e+01 0.0000e+00 -1.0000e+00
       21  1    1    2  502  501 +4.3160370905e+01 -6.0184497879e+01 +1.7069006353e+02 1.8606474462e+02 0.0000000000e+00 0.0000e+00 1.0000e+00
<mgrwt>
<rscale>  1 0.99834835E+03</rscale>
<asrwt>0</asrwt>
<pdfrwt beam="1">  1        1 0.27779310E+00 0.99834835E+03</pdfrwt>
<pdfrwt beam="2">  1       -1 0.24740166E-01 0.99834835E+03</pdfrwt>
<totfact> 0.57915411E+01</totfact>
</mgrwt>
</event>
<event>
 6      1 +3.0741590e+01 9.97412200e+02 7.81860800e-03 9.31138800e-02
       -2 -1    0    0    0  501 -0.0000000000e+00 +0.0000000000e+00 +1.3871442660e+02 1.3871442660e+02 0.0000000000e+00 0.0000e+00 1.0000e+00
        2 -1    0    0  502    0 +0.0000000000e+00 -0.0000000000e+00 -3.1116658549e+03 3.1116658549e+03 0.0000000000e+00 0.0000e+00 -1.0000e+00
  5000001  2    1    2    0    0 +1.0501818928e+01 -4.7155031501e+01 -1.6604405338e+03 1.9369805961e+03 9.9624152618e+02 0.0000e+00 0.0000e+00
  5000521  1    3    3    0    0 -4.8238765530e+02 +7.5603805078e+01 -8.5696397240e+02 9.8635745819e+02 1.0000000000e+01 0.0000e+00 -1.0000e+00
 -5000521  1    3    3    0    0 +4.9288947423e+02 -1.2275883658e+02 -8.0347656136e+02 9.5062313796e+02 1.0000000000e+01 0.0000e+00 1.0000e+00
       21  1    1    2  502  501 -1.0501818928e+01 +4.7155031501e+01 -1.3125108945e+03 1.3133996853e+03 0.0000000000e+00 0.0000e+00 -1.0000e+00
<mgrwt>
<rscale>  1 0.99741218E+03</rscale>
<asrwt>0</asrwt>
<pdfrwt beam="1">  1        2 0.47871775E+00 0.99741218E+03</pdfrwt>
<pdfrwt beam="2">  1       -2 0.21340684E-01 0.99741218E+03</pdfrwt>
<totfact> 0.28880057E+01</totfact>
</mgrwt>
</event>
<event>
 6      1 +3.0741590e+01 1.01081400e+03 7.81860800e-03 9.29676400e-02
       -2 -1    0    0    0  501 -0.0000000000e+00 +0.0000000000e+00 +2.0779654714e+02 2.0779654714e+02 0.0000000000e+00 0.0000e+00 -1.0000e+00
        2 -1    0    0  502    0 +0.0000000000e+00 -0.0000000000e+00 -2.1156362590e+03 2.1156362590e+03 0.0000000000e+00 0.0000e+00 1.0000e+00
  5000001  2    1    2    0    0 -3.5469397025e+01 -9.4126358800e+01 -1.0418403781e+03 1.4516113246e+03 1.0057963088e+03 0.0000e+00 0.0000e+00
  5000521  1    3    3    0    0 +1.3702843735e+02 +7.4859174503e+01 +1.6113387795e+02 2.2459923257e+02 1.0000000000e+01 0.0000e+00 -1.0000e+00
 -5000521  1    3    3    0    0 -1.7249783437e+02 -1.6898553330e+02 -1.2029742560e+03 1.2270120920e+03 1.0000000000e+01 0.0000e+00 1.0000e+00
       21  1    1    2  502  501 +3.5469397025e+01 +9.4126358800e+01 -8.6599933380e+02 8.7182148154e+02 0.0000000000e+00 0.0000e+00 1.0000e+00
<mgrwt>
<rscale>  1 0.10108136E+04</rscale>
<asrwt>0</asrwt>
<pdfrwt beam="1">  1        2 0.32548248E+00 0.10108136E+04</pdfrwt>
<pdfrwt beam="2">  1       -2 0.31968701E-01 0.10108136E+04</pdfrwt>
<totfact> 0.52617401E+01</totfact>
</mgrwt>
</event>
<event>
 6      1 +3.0741590e+01 1.04934700e+03 7.81860800e-03 9.25601800e-02
       21 -1    0    0  501  502 +0.0000000000e+00 +0.0000000000e+00 +5.0988114165e+02 5.0988114165e+02 0.0000000000e+00 0.0000e+00 1.0000e+00
        2 -1    0    0  502    0 -0.0000000000e+00 -0.0000000000e+00 -1.8312216440e+03 1.8312216440e+03 0.0000000000e+00 0.0000e+00 1.0000e+00
  5000001  2    1    2    0    0 -3.0944958882e+02 -8.9625449055e+01 -1.6011626722e+03 1.9143801405e+03 9.9866793808e+02 0.0000e+00 0.0000e+00
  5000521  1    3    3    0    0 -6.6474070856e+02 -3.1966142908e+00 -1.1972487768e+03 1.3694506422e+03 1.0000000000e+01 0.0000e+00 1.0000e+00
 -5000521  1    3    3    0    0 +3.5529111974e+02 -8.6428834765e+01 -4.0391389543e+02 5.4492949834e+02 1.0000000000e+01 0.0000e+00 -1.0000e+00
        2  1    1    2  501    0 +3.0944958882e+02 +8.9625449055e+01 +2.7982216982e+02 4.2672264513e+02 0.0000000000e+00 0.0000e+00 1.0000e+00
<mgrwt>
<rscale>  1 0.10493471E+04</rscale>
<asrwt>0</asrwt>
<pdfrwt beam="1">  1       21 0.78443253E-01 0.10493471E+04</pdfrwt>
<pdfrwt beam="2">  1        2 0.28172640E+00 0.10493471E+04</pdfrwt>
<totfact> 0.12661575E+02</totfact>
</mgrwt>
</event>
<event>
 6      1 +3.0741590e+01 1.02619600e+03 7.81860800e-03 9.28027200e-02
        2 -1    0    0  502    0 -0.0000000000e+00 +0.0000000000e+00 +1.8688740095e+03 1.8688740095e+03 0.0000000000e+00 0.0000e+00 -1.0000e+00
       21 -1    0    0  501  502 +0.0000000000e+00 -0.0000000000e+00 -4.1250793684e+02 4.1250793684e+02 0.0000000000e+00 0.0000e+00 -1.0000e+00
  5000001  2    1    2    0    0 +1.3801498477e+02 -1.5440536619e+02 +1.6850035590e+03 1.9728949074e+03 1.0050811752e+03 0.0000e+00 0.0000e+00
  5000521  1    3    3    0    0 +4.7629472753e+02 -2.1649793605e+02 +1.4859319940e+03 1.5753799271e+03 1.0000000000e+01 0.0000e+00 -1.0000e+00
 -5000521  1    3    3    0    0 -3.3827974275e+02 +6.2092569854e+01 +1.9907156496e+02 3.9751498030e+02 1.0000000000e+01 0.0000e+00 1.0000e+00
        2  1    1    2  501    0 -1.3801498477e+02 +1.5440536619e+02 -2.2863748625e+02 3.0848703903e+02 0.0000000000e+00 0.0000e+00 -1.0000e+00
<mgrwt>
<rscale>  1 0.10261956E+04</rscale>
<asrwt>0</asrwt>
<pdfrwt beam="1">  1       21 0.63462761E-01 0.10261956E+04</pdfrwt>
<pdfrwt beam="2">  1        2 0.28751907E+00 0.10261956E+04</pdfrwt>
<totfact> 0.19712199E+02</totfact>
</mgrwt>
</event>
<event>
 6      1 +3.0741590e+01 9.94398900e+02 7.81860800e-03 9.31470900e-02
        2 -1    0    0  502    0 +0.0000000000e+00 +0.0000000000e+00 +1.6814069674e+03 1.6814069674e+03 0.0000000000e+00 0.0000e+00 -1.0000e+00
       -2 -1    0    0    0  501 -0.0000000000e+00 -0.0000000000e+00 -2.8937417731e+02 2.8937417731e+02 0.0000000000e+00 0.0000e+00 1.0000e+00
  5000001  2    1    2    0    0 -6.1007776126e+00 -2.1627904910e+01 +5.6551212949e+02 1.1439550516e+03 9.9414496218e+02 0.0000e+00 0.0000e+00
  5000521  1    3    3    0    0 -5.1133725148e+00 +4.3383191937e+02 +2.1677789531e+01 4.3451836256e+02 1.0000000000e+01 0.0000e+00 1.0000e+00
 -5000521  1    3    3    0    0 -9.8740509782e-01 -4.5545982428e+02 +5.4383433996e+02 7.0943668908e+02 1.0000000000e+01 0.0000e+00 -1.0000e+00
       21  1    1    2  502  501 +6.1007776126e+00 +2.1627904910e+01 +8.2652066063e+02 8.2682609309e+02 0.0000000000e+00 0.0000e+00 -1.0000e+00
<mgrwt>
<rscale>  1 0.99439891E+03</rscale>
<asrwt>0</asrwt>
<pdfrwt beam="1">  1        2 0.25867799E+00 0.99439891E+03</pdfrwt>
<pdfrwt beam="2">  1       -2 0.44519105E-01 0.99439891E+03</pdfrwt>
<totfact> 0.48102144E+01</totfact>
</mgrwt>
</event>
<event>
 6      1 +3.0741590e+01 1.00134600e+03 7.81860800e-03 9.30707000e-02
       -1 -1    0    0    0  501 -0.0000000000e+00 +0.0000000000e+00 +2.0276238493e+03 2.0276238493e+03 0.0000000000e+00 0.0000e+00 1.0000e+00
       21 -1    0    0  501  502 +0.0000000000e+00 -0.0000000000e+00 -1.6616761706e+02 1.6616761706e+02 0.0000000000e+00 0.0000e+00 -1.0000e+00
  5000001  2    1    2    0    0 -8.8589561501e+00 -3.5389652653e+01 +1.3489467766e+03 1.6799852279e+03 1.0006807938e+03 0.0000e+00 0.0000e+00
  5000521  1    3    3    0    0 -8.5537194417e+01 +1.6359810302e+02 +1.4371529377e+03 1.4489960377e+03 1.0000000000e+01 0.0000e+00 1.0000e+00
 -5000521  1    3    3    0    0 +7.6678238266e+01 -1.9898775567e+02 -8.8206161063e+01 2.3098919018e+02 1.0000000000e+01 0.0000e+00 -1.0000e+00
       -1  1    1    2    0  502 +8.8589561501e+00 +3.5389652653e+01 +5.1250945558e+02 5.1380623845e+02 0.0000000000e+00 0.0000e+00 1.0000e+00
<mgrwt>
<rscale>  1 0.10013456E+04</rscale>
<asrwt>0</asrwt>
<pdfrwt beam="1">  1       21 0.25564250E-01 0.10013456E+04</pdfrwt>
<pdfrwt beam="2">  1       -1 0.31194211E+00 0.10013456E+04</pdfrwt>
<totfact> 0.35611802E+01</totfact>
</mgrwt>
</event>
<event>
 6      1 +3.0741590e+01 9.74157500e+02 7.81860800e-03 9.33735100e-02
        1 -1    0    0  502    0 +0.0000000000e+00 +0.0000000000e+00 +3.1292333768e+03 3.1292333768e+03 0.0000000000e+00 0.0000e+00 1.0000e+00
       -1 -1    0    0    0  501 -0.0000000000e+00 -0.0000000000e+00 -8.3568831822e+01 8.3568831822e+01 0.0000000000e+00 0.0000e+00 -1.0000e+00
  5000001  2    1    2    0    0 -1.1608442509e+01 +3.0392248170e+01 +3.0135373019e+03 3.1670790806e+03 9.7361408594e+02 0.0000e+00 0.0000e+00
  5000521  1    3    3    0    0 +9.9167282394e+01 -4.1500806502e+02 +8.0306874269e+02 9.0944227382e+02 1.0000000000e+01 0.0000e+00 -1.0000e+00
 -5000521  1    3    3    0    0 -1.1077572490e+02 +4.4540031319e+02 +2.2104685592e+03 2.2576368068e+03 1.0000000000e+01 0.0000e+00 1.0000e+00
       21  1    1    2  502  501 +1.1608442509e+01 -3.0392248170e+01 +3.2127243116e+01 4.5723128027e+01 0.0000000000e+00 0.0000e+00 -1.0000e+00
<mgrwt>
<rscale>  1 0.97415750E+03</rscale>
<asrwt>0</asrwt>
<pdfrwt beam="1">  1        1 0.48142043E+00 0.97415750E+03</pdfrwt>
<pdfrwt beam="2">  1       -1 0.12856746E-01 0.97415750E+03</pdfrwt>
<totfact> 0.20920323E+01</totfact>
</mgrwt>
</event>
<event>
 6      1 +3.0741590e+01 1.06954900e+03 7.81860800e-03 9.23539100e-02
        1 -1    0    0  502    0 +0.0000000000e+00 +0.0000000000e+00 +3.0701370253e+02 3.0701370253e+02 0.0000000000e+00 0.0000e+00 -1.0000e+00
       -1 -1    0    0    0  501 -0.0000000000e+00 -0.0000000000e+00 -9.7481443006e+02 9.7481443006e+02 0.0000000000e+00 0.0000e+00 1.0000e+00
  5000001  2    1    2    0    0 -1.9325161704e+01 -9.2466686078e+00 -6.3887013165e+02 1.2458289363e+03 1.0693342465e+03 0.0000e+00 0.0000e+00
  5000521  1    3    3    0    0 +5.0057705366e+02 +1.5159840694e+02 -3.5229352583e+02 6.3069025042e+02 1.0000000000e+01 0.0000e+00 -1.0000e+00
 -5000521  1    3    3    0    0 -5.1990221536e+02 -1.6084507555e+02 -2.8657660581e+02 6.1513868588e+02 1.0000000000e+01 0.0000e+00 1.0000e+00
       21  1    1    2  502  501 +1.9325161704e+01 +9.2466686078e+00 -2.8930595886e+01 3.5999196290e+01 0.0000000000e+00 0.0000e+00 1.0000e+00
<mgrwt>
<rscale>  1 0.10695488E+04</rscale>
<asrwt>0</asrwt>
<pdfrwt beam="1">  1        1 0.47232877E-01 0.10695488E+04</pdfrwt>
<pdfrwt beam="2">  1       -1 0.14997145E+00 0.10695488E+04</pdfrwt>
<totfact> 0.29650365E+01</totfact>
</mgrwt>
</event>
<event>
 6      1 +3.0741590e+01 1.01450300e+03 7.81860800e-03 9.29278000e-02
        3 -1    0    0  502    0 +0.0000000000e+00 +0.0000000000e+00 +2.4419776920e+02 2.4419776920e+02 0.0000000000e+00 0.0000e+00 1.0000e+00
       -3 -1    0    0    0  501 -0.0000000000e+00 -0.0000000000e+00 -1.2700953649e+03 1.2700953649e+03 0.0000000000e+00 0.0000e+00 -1.0000e+00
  5000001  2    1    2    0    0 +1.3387159254e+01 -9.4648075434e+01 -8.9968932206e+02 1.3559706703e+03 1.0099891624e+03 0.0000e+00 0.0000e+00
  5000521  1    3    3    0    0 -1.1190979716e+02 +1.9578352243e+02 -9.9908149072e+02 1.0242650123e+03 1.0000000000e+01 0.0000e+00 -1.0000e+00
 -5000521  1    3    3    0    0 +1.2529695641e+02 -2.9043159786e+02 +9.9392168668e+01 3.3170565795e+02 1.0000000000e+01 0.0000e+00 1.0000e+00
       21  1    1    2  502  501 -1.3387159254e+01 +9.4648075434e+01 -1.2620827360e+02 1.5832246379e+02 0.0000000000e+00 0.0000e+00 -1.0000e+00
<mgrwt>
<rscale>  1 0.10145026E+04</rscale>
<asrwt>0</asrwt>
<pdfrwt beam="1">  1        3 0.37568888E-01 0.10145026E+04</pdfrwt>
<pdfrwt beam="2">  1       -3 0.19539928E+00 0.10145026E+04</pdfrwt>
<totfact> 0.28751231E+00</totfact>
</mgrwt>
</event>
<event>
 6      1 +3.0741590e+01 9.95138900e+02 7.81860800e-03 9.31389300e-02
        2 -1    0    0  502    0 -0.0000000000e+00 +0.0000000000e+00 +4.3061304672e+02 4.3061304672e+02 0.0000000000e+00 0.0000e+00 -1.0000e+00
       21 -1    0    0  501  502 +0.0000000000e+00 -0.0000000000e+00 -8.5100038112e+02 8.5100038112e+02 0.0000000000e+00 0.0000e+00 1.0000e+00
  5000001  2    1    2    0    0 -1.5319962169e+02 -2.4900466848e+01 -2.0484487008e+02 1.0160033541e+03 9.8296044552e+02 0.0000e+00 0.0000e+00
  5000521  1    3    3    0    0 +1.8150332283e+02 +4.0841391059e+02 -7.6405759072e+01 4.5352311802e+02 1.0000000000e+01 0.0000e+00 1.0000e+00
 -5000521  1    3    3    0    0 -3.3470294452e+02 -4.3331437744e+02 -1.2843911100e+02 5.6248023610e+02 1.0000000000e+01 0.0000e+00 -1.0000e+00
        2  1    1    2  501    0 +1.5319962169e+02 +2.4900466848e+01 -2.1554246433e+02 2.6561007372e+02 0.0000000000e+00 0.0000e+00 -1.0000e+00
<mgrwt>
<rscale>  1 0.99513888E+03</rscale>
<asrwt>0</asrwt>
<pdfrwt beam="1">  1       21 0.13092314E+00 0.99513888E+03</pdfrwt>
<pdfrwt beam="2">  1        2 0.66248161E-01 0.99513888E+03</pdfrwt>
<totfact> 0.31447006E+02</totfact>
</mgrwt>
</event>
<event>
 6      1 +3.0741590e+01 9.98685800e+02 7.81860800e-03 9.30998700e-02
        1 -1    0    0  502    0 -0.0000000000e+00 +0.0000000000e+00 +2.2715163812e+02 2.2715163812e+02 0.0000000000e+00 0.0000e+00 1.0000e+00
       21 -1    0    0  501  502 +0.0000000000e+00 -0.0000000000e+00 -1.3020313784e+03 1.3020313784e+03 0.0000000000e+00 0.0000e+00 -1.0000e+00
  5000001  2    1    2    0    0 -2.5208034319e+01 +7.8050977877e+01 -1.0339874990e+03 1.4375338183e+03 9.9531197639e+02 0.0000e+00 0.0000e+00
  5000521  1    3    3    0    0 -2.9913234466e+02 +1.1499116194e+02 +4.4899836262e+01 3.2375781418e+02 1.0000000000e+01 0.0000e+00 1.0000e+00
 -5000521  1    3    3    0    0 +2.7392431034e+02 -3.6940184065e+01 -1.0788873353e+03 1.1137760041e+03 1.0000000000e+01 0.0000e+00 -1.0000e+00
        1  1    1    2  501    0 +2.5208034319e+01 -7.8050977877e+01 -4.0892241204e+01 9.1649198210e+01 0.0000000000e+00 0.0000e+00 1.0000e+00
<mgrwt>
<rscale>  1 0.99868580E+03</rscale>
<asrwt>0</asrwt>
<pdfrwt beam="1">  1       21 0.20031252E+00 0.99868580E+03</pdfrwt>
<pdfrwt beam="2">  1        1 0.34946406E-01 0.99868580E+03</pdfrwt>
<totfact> 0.13925315E+02</totfact>
</mgrwt>
</event>
<event>
 6      1 +3.0741590e+01 9.74034500e+02 7.81860800e-03 9.33749100e-02
        2 -1    0    0  502    0 +0.0000000000e+00 +0.0000000000e+00 +1.6004837171e+03 1.6004837171e+03 0.0000000000e+00 0.0000e+00 1.0000e+00
       -2 -1    0    0    0  501 -0.0000000000e+00 -0.0000000000e+00 -1.7055336930e+02 1.7055336930e+02 0.0000000000e+00 0.0000e+00 -1.0000e+00
  5000001  2    1    2    0    0 +4.5717808571e+00 +3.1967281165e+01 +1.2322031340e+03 1.5706902389e+03 9.7349907795e+02 0.0000e+00 0.0000e+00
  5000521  1    3    3    0    0 -2.1083567826e+02 +2.2233589455e+02 +1.2455603867e+03 1.2827336474e+03 1.0000000000e+01 0.0000e+00 1.0000e+00
 -5000521  1    3    3    0    0 +2.1540745912e+02 -1.9036861338e+02 -1.3357252631e+01 2.8795659153e+02 1.0000000000e+01 0.0000e+00 -1.0000e+00
       21  1    1    2  502  501 -4.5717808571e+00 -3.1967281165e+01 +1.9772721374e+02 2.0034684749e+02 0.0000000000e+00 0.0000e+00 -1.0000e+00
<mgrwt>
<rscale>  1 0.97403453E+03</rscale>
<asrwt>0</asrwt>
<pdfrwt beam="1">  1        2 0.24622825E+00 0.97403453E+03</pdfrwt>
<pdfrwt beam="2">  1       -2 0.26238981E-01 0.97403453E+03</pdfrwt>
<totfact> 0.14640335E+02</totfact>
</mgrwt>
</event>
<event>
 6      1 +3.0741590e+01 1.02365600e+03 7.81860800e-03 9.28297400e-02
        2 -1    0    0  502    0 +0.0000000000e+00 +0.0000000000e+00 +2.7108858776e+03 2.7108858776e+03 0.0000000000e+00 0.0000e+00 1.0000e+00
       -2 -1    0    0    0  501 -0.0000000000e+00 -0.0000000000e+00 -1.0436059233e+02 1.0436059233e+02 0.0000000000e+00 0.0000e+00 -1.0000e+00
  5000001  2    1    2    0    0 +1.6595585502e+01 -3.2923618194e+01 +2.5496174821e+03 2.7474388291e+03 1.0229914157e+03 0.0000e+00 0.0000e+00
  5000521  1    3    3    0    0 +4.2138895915e+02 +1.8529556494e+02 +6.7411303395e+02 8.1635254873e+02 1.0000000000e+01 0.0000e+00 -1.0000e+00
 -5000521  1    3    3    0    0 -4.0479337365e+02 -2.1821918313e+02 +1.8755044481e+03 1.9310862804e+03 1.0000000000e+01 0.0000e+00 1.0000e+00
       21  1    1    2  502  501 -1.6595585502e+01 +3.2923618194e+01 +5.6907803178e+01 6.7807640836e+01 0.0000000000e+00 0.0000e+00 1.0000e+00
<mgrwt>
<rscale>  1 0.10236556E+04</rscale>
<asrwt>0</asrwt>
<pdfrwt beam="1">  1        2 0.41705931E+00 0.10236556E+04</pdfrwt>
<pdfrwt beam="2">  1       -2 0.16055478E-01 0.10236556E+04</pdfrwt>
<totfact> 0.82861799E+01</totfact>
</mgrwt>
</event>
<event>
 6      1 +3.0741590e+01 1.04587800e+03 7.81860800e-03 9.25961000e-02
       -2 -1    0    0    0  501 -0.0000000000e+00 +0.0000000000e+00 +1.8103664934e+02 1.8103664934e+02 0.0000000000e+00 0.0000e+00 -1.0000e+00
        2 -1    0    0  502    0 +0.0000000000e+00 -0.0000000000e+00 -2.6827975106e+03 2.6827975106e+03 0.0000000000e+00 0.0000e+00 1.0000e+00
  5000001  2    1    2    0    0 -2.8348424827e+02 +5.2556197624e+01 -2.2494678404e+03 2.4807189798e+03 1.0053534794e+03 0.0000e+00 0.0000e+00
  5000521  1    3    3    0    0 -2.5870680480e+02 +4.6680997373e+02 -1.7587465030e+03 1.8379689944e+03 1.0000000000e+01 0.0000e+00 1.0000e+00
 -5000521  1    3    3    0    0 -2.4777443470e+01 -4.1425377610e+02 -4.9072133740e+02 6.4274998537e+02 1.0000000000e+01 0.0000e+00 -1.0000e+00
       21  1    1    2  502  501 +2.8348424827e+02 -5.2556197624e+01 -2.5229302084e+02 3.8311518019e+02 0.0000000000e+00 0.0000e+00 -1.0000e+00
<mgrwt>
<rscale>  1 0.10458781E+04</rscale>
<asrwt>0</asrwt>
<pdfrwt beam="1">  1        2 0.41273806E+00 0.10458781E+04</pdfrwt>
<pdfrwt beam="2">  1       -2 0.27851794E-01 0.10458781E+04</pdfrwt>
<totfact> 0.32316889E+01</totfact>
</mgrwt>
</event>
<event>
 6      1 +3.0741590e+01 1.00163300e+03 7.81860800e-03 9.30675500e-02
        2 -1    0    0  502    0 +0.0000000000e+00 +0.0000000000e+00 +2.4064543443e+03 2.4064543443e+03 0.0000000000e+00 0.0000e+00 -1.0000e+00
       -2 -1    0    0    0  501 -0.0000000000e+00 -0.0000000000e+00 -1.2171128003e+02 1.2171128003e+02 0.0000000000e+00 0.0000e+00 1.0000e+00
  5000001  2    1    2    0    0 +3.6619089779e+01 +7.1973482928e+01 +2.1124242788e+03 2.3378634861e+03 9.9837277909e+02 0.0000e+00 0.0000e+00
  5000521  1    3    3    0    0 +5.0602556512e+02 +1.0805085377e+02 +1.2937278133e+03 1.3934017779e+03 1.0000000000e+01 0.0000e+00 -1.0000e+00
 -5000521  1    3    3    0    0 -4.6940647534e+02 -3.6077370845e+01 +8.1869646547e+02 9.4446170825e+02 1.0000000000e+01 0.0000e+00 1.0000e+00
       21  1    1    2  502  501 -3.6619089779e+01 -7.1973482928e+01 +1.7231878543e+02 1.9030213817e+02 0.0000000000e+00 0.0000e+00 1.0000e+00
<mgrwt>
<rscale>  1 0.10016333E+04</rscale>
<asrwt>0</asrwt>
<pdfrwt beam="1">  1        2 0.37022371E+00 0.10016333E+04</pdfrwt>
<pdfrwt beam="2">  1       -2 0.18724814E-01 0.10016333E+04</pdfrwt>
<totfact> 0.95346745E+01</totfact>
</mgrwt>
</event>
<event>
 6      1 +3.0741590e+01 9.90017500e+02 7.81860800e-03 9.31956200e-02
        2 -1    0    0  502    0 -0.0000000000e+00 +0.0000000000e+00 +1.4553078069e+03 1.4553078069e+03 0.0000000000e+00 0.0000e+00 -1.0000e+00
       21 -1    0    0  501  502 +0.0000000000e+00 -0.0000000000e+00 -3.9874007948e+02 3.9874007948e+02 0.0000000000e+00 0.0000e+00 1.0000e+00
  5000001  2    1    2    0    0 +3.2244549768e+01 -2.6352983376e+00 +1.2856673115e+03 1.6226752968e+03 9.8948877054e+02 0.0000e+00 0.0000e+00
  5000521  1    3    3    0    0 +3.4851447631e+02 +2.4706935538e+02 +1.0976460786e+03 1.1778932552e+03 1.0000000000e+01 0.0000e+00 -1.0000e+00
 -5000521  1    3    3    0    0 -3.1626992654e+02 -2.4970465372e+02 +1.8802123286e+02 4.4478204160e+02 1.0000000000e+01 0.0000e+00 1.0000e+00
        2  1    1    2  501    0 -3.2244549768e+01 +2.6352983376e+00 -2.2909958410e+02 2.3137258961e+02 0.0000000000e+00 0.0000e+00 -1.0000e+00
<mgrwt>
<rscale>  1 0.99001752E+03</rscale>
<asrwt>0</asrwt>
<pdfrwt beam="1">  1       21 0.61344628E-01 0.99001752E+03</pdfrwt>
<pdfrwt beam="2">  1        2 0.22389351E+00 0.99001752E+03</pdfrwt>
<totfact> 0.36287227E+02</totfact>
</mgrwt>
</event>
<event>
 6      1 +3.0741590e+01 1.01498800e+03 7.81860800e-03 9.29225800e-02
        2 -1    0    0  502    0 -0.0000000000e+00 +0.0000000000e+00 +2.2005005749e+03 2.2005005749e+03 0.0000000000e+00 0.0000e+00 -1.0000e+00
       21 -1    0    0  501  502 +0.0000000000e+00 -0.0000000000e+00 -1.5753155311e+02 1.5753155311e+02 0.0000000000e+00 0.0000e+00 -1.0000e+00
  5000001  2    1    2    0    0 +2.6130703050e+01 +1.5815729387e+02 +1.7113998152e+03 1.9897459865e+03 1.0022490809e+03 0.0000e+00 0.0000e+00
  5000521  1    3    3    0    0 -1.7528195504e+02 +5.3873690242e+02 +7.8518570485e+02 9.6828601399e+02 1.0000000000e+01 0.0000e+00 -1.0000e+00
 -5000521  1    3    3    0    0 +2.0141265809e+02 -3.8057960854e+02 +9.2621411032e+02 1.0214599725e+03 1.0000000000e+01 0.0000e+00 1.0000e+00
        2  1    1    2  501    0 -2.6130703050e+01 -1.5815729387e+02 +3.3156920662e+02 3.6828614150e+02 0.0000000000e+00 0.0000e+00 -1.0000e+00
<mgrwt>
<rscale>  1 0.10149876E+04</rscale>
<asrwt>0</asrwt>
<pdfrwt beam="1">  1       21 0.24235625E-01 0.10149876E+04</pdfrwt>
<pdfrwt beam="2">  1        2 0.33853853E+00 0.10149876E+04</pdfrwt>
<totfact> 0.97372879E+02</totfact>
</mgrwt>
</event>
<event>
 6      1 +3.0741590e+01 9.91085200e+02 7.81860800e-03 9.31837700e-02
       -1 -1    0    0    0  501 -0.0000000000e+00 +0.0000000000e+00 +7.1837505876e+02 7.1837505876e+02 0.0000000000e+00 0.0000e+00 1.0000e+00
        1 -1    0    0  502    0 +0.0000000000e+00 -0.0000000000e+00 -3.5744316612e+02 3.5744316612e+02 0.0000000000e+00 0.0000e+00 -1.0000e+00
  5000001  2    1    2    0    0 +2.1062541486e+01 -2.2800854640e+00 +3.6054489575e+02 1.0546290954e+03 9.9085875758e+02 0.0000e+00 0.0000e+00
  5000521  1    3    3    0    0 +4.1678928260e+02 -6.9045923311e+01 -1.0944345943e+02 4.3653008651e+02 1.0000000000e+01 0.0000e+00 -1.0000e+00
 -5000521  1    3    3    0    0 -3.9572674111e+02 +6.6765837847e+01 +4.6998835518e+02 6.1809900885e+02 1.0000000000e+01 0.0000e+00 1.0000e+00
       21  1    1    2  502  501 -2.1062541486e+01 +2.2800854640e+00 +3.8699689000e-01 2.1189129528e+01 0.0000000000e+00 0.0000e+00 -1.0000e+00
<mgrwt>
<rscale>  1 0.99108522E+03</rscale>
<asrwt>0</asrwt>
<pdfrwt beam="1">  1        1 0.54991257E-01 0.99108522E+03</pdfrwt>
<pdfrwt beam="2">  1       -1 0.11051924E+00 0.99108522E+03</pdfrwt>
<totfact> 0.52763356E+01</totfact>
</mgrwt>
</event>
<event>
 6      1 +3.0741590e+01 1.00330800e+03 7.81860800e-03 9.30492400e-02
       -2 -1    0    0    0  501 -0.0000000000e+00 +0.0000000000e+00 +1.5879492711e+02 1.5879492711e+02 0.0000000000e+00 0.0000e+00 1.0000e+00
        2 -1    0    0  502    0 +0.0000000000e+00 -0.0000000000e+00 -2.3035385002e+03 2.3035385002e+03 0.0000000000e+00 0.0000e+00 -1.0000e+00
  5000001  2    1    2    0    0 -3.2136427870e+01 +2.6678508918e+01 -1.4327405202e+03 1.7491063666e+03 1.0024386218e+03 0.0000e+00 0.0000e+00
  5000521  1    3    3    0    0 -4.5638999909e+02 +4.4307768022e-01 -3.1885420377e+02 5.5683034296e+02 1.0000000000e+01 0.0000e+00 1.0000e+00
 -5000521  1    3    3    0    0 +4.2425357122e+02 +2.6235431238e+01 -1.1138863164e+03 1.1922760236e+03 1.0000000000e+01 0.0000e+00 -1.0000e+00
       21  1    1    2  502  501 +3.2136427870e+01 -2.6678508918e+01 -7.1200305288e+02 7.1322706072e+02 0.0000000000e+00 0.0000e+00 -1.0000e+00
<mgrwt>
<rscale>  1 0.10033084E+04</rscale>
<asrwt>0</asrwt>
<pdfrwt beam="1">  1        2 0.35439051E+00 0.10033084E+04</pdfrwt>
<pdfrwt beam="2">  1       -2 0.24429991E-01 0.10033084E+04</pdfrwt>
<totfact> 0.67956514E+01</totfact>
</mgrwt>
</event>
<event>
 6      1 +3.0741590e+01 1.00470400e+03 7.81860800e-03 9.30340100e-02
       -2 -1    0    0    0  501 -0.0000000000e+00 +0.0000000000e+00 +4.6158236390e+02 4.6158236390e+02 0.0000000000e+00 0.0000e+00 -1.0000e+00
        2 -1    0    0  502    0 +0.0000000000e+00 -0.0000000000e+00 -5.7839253569e+02 5.7839253569e+02 0.0000000000e+00 0.0000e+00 1.0000e+00
  5000001  2    1    2    0    0 -2.1232838408e+01 +1.8851852482e+01 -1.0948850237e+02 1.0106519971e+03 1.0043024949e+03 0.0000e+00 0.0000e+00
  5000521  1    3    3    0    0 -3.4664581396e+02 +3.7957263816e+02 -7.7312082459e+00 5.1419692682e+02 1.0000000000e+01 0.0000e+00 -1.0000e+00
 -5000521  1    3    3    0    0 +3.2541297555e+02 -3.6072078567e+02 -1.0175729412e+02 4.9645507025e+02 1.0000000000e+01 0.0000e+00 1.0000e+00
       21  1    1    2  502  501 +2.1232838408e+01 -1.8851852482e+01 -7.3216694235e+00 2.9322902517e+01 0.0000000000e+00 0.0000e+00 1.0000e+00
<mgrwt>
<rscale>  1 0.10047038E+04</rscale>
<asrwt>0</asrwt>
<pdfrwt beam="1">  1        2 0.88983467E-01 0.10047038E+04</pdfrwt>
<pdfrwt beam="2">  1       -2 0.71012671E-01 0.10047038E+04</pdfrwt>
<totfact> 0.93251666E+01</totfact>
</mgrwt>
</event>
<event>
 6      1 +3.0741590e+01 1.00108500e+03 7.81860800e-03 9.30735500e-02
       21 -1    0    0  501  502 +0.0000000000e+00 +0.0000000000e+00 +3.6736885845e+02 3.6736885845e+02 0.0000000000e+00 0.0000e+00 1.0000e+00
        2 -1    0    0  502    0 -0.0000000000e+00 -0.0000000000e+00 -7.9320153396e+02 7.9320153396e+02 0.0000000000e+00 0.0000e+00 -1.0000e+00
  5000001  2    1    2    0    0 -6.1620741199e+01 -4.0465082329e+00 -4.4553172330e+02 1.0957510862e+03 9.9917888111e+02 0.0000e+00 0.0000e+00
  5000521  1    3    3    0    0 +2.8361205744e+02 +1.2210989390e+01 -6.3918151827e+02 6.9945544582e+02 1.0000000000e+01 0.0000e+00 -1.0000e+00
 -5000521  1    3    3    0    0 -3.4523279864e+02 -1.6257497623e+01 +1.9364979497e+02 3.9629564038e+02 1.0000000000e+01 0.0000e+00 1.0000e+00
        2  1    1    2  501    0 +6.1620741199e+01 +4.0465082329e+00 +1.9699047782e+01 6.4819306217e+01 0.0000000000e+00 0.0000e+00 -1.0000e+00
<mgrwt>
<rscale>  1 0.10010854E+04</rscale>
<asrwt>0</asrwt>
<pdfrwt beam="1">  1       21 0.56518287E-01 0.10010854E+04</pdfrwt>
<pdfrwt beam="2">  1        2 0.12203100E+00 0.10010854E+04</pdfrwt>
<totfact> 0.11249868E+03</totfact>
</mgrwt>
</event>
<event>
 6      1 +3.0741590e+01 1.02673600e+03 7.81860800e-03 9.27969700e-02
        2 -1    0    0  502    0 +0.0000000000e+00 +0.0000000000e+00 +1.1292275428e+03 1.1292275428e+03 0.0000000000e+00 0.0000e+00 1.0000e+00
       -2 -1    0    0    0  501 -0.0000000000e+00 -0.0000000000e+00 -6.8013376275e+02 6.8013376275e+02 0.0000000000e+00 0.0000e+00 -1.0000e+00
  5000001  2    1    2    0    0 -2.3863640085e+02 +1.4272797817e+02 -2.5022610201e+02 1.0567877842e+03 9.8836668862e+02 0.0000e+00 0.0000e+00
  5000521  1    3    3    0    0 +1.6706501906e+02 +2.0417222104e+02 -5.0771939755e+02 5.7225519052e+02 1.0000000000e+01 0.0000e+00 -1.0000e+00
 -5000521  1    3    3    0    0 -4.0570141992e+02 -6.1444242865e+01 +2.5749329554e+02 4.8453259369e+02 1.0000000000e+01 0.0000e+00 1.0000e+00
       21  1    1    2  502  501 +2.3863640085e+02 -1.4272797817e+02 +6.9931988206e+02 7.5257352133e+02 0.0000000000e+00 0.0000e+00 1.0000e+00
<mgrwt>
<rscale>  1 0.10267362E+04</rscale>
<asrwt>0</asrwt>
<pdfrwt beam="1">  1        2 0.17372731E+00 0.10267362E+04</pdfrwt>
<pdfrwt beam="2">  1       -2 0.10463596E+00 0.10267362E+04</pdfrwt>
<totfact> 0.15361764E+01</totfact>
</mgrwt>
</event>
<event>
 6      1 +3.0741590e+01 1.00965100e+03 7.81860800e-03 9.29802300e-02
        2 -1    0    0  502    0 +0.0000000000e+00 +0.0000000000e+00 +3.1535818434e+03 3.1535818434e+03 0.0000000000e+00 0.0000e+00 1.0000e+00
       -2 -1    0    0    0  501 -0.0000000000e+00 -0.0000000000e+00 -8.6535707166e+01 8.6535707166e+01 0.0000000000e+00 0.0000e+00 -1.0000e+00
  5000001  2    1    2    0    0 -2.3022364485e+01 -6.5207408905e+00 +3.0432831352e+03 3.2063947163e+03 1.0093672705e+03 0.0000e+00 0.0000e+00
  5000521  1    3    3    0    0 +3.0257301609e+02 -1.5330560145e+02 +2.6632378013e+03 2.6847697524e+03 1.0000000000e+01 0.0000e+00 1.0000e+00
 -5000521  1    3    3    0    0 -3.2559538058e+02 +1.4678486056e+02 +3.8004533390e+02 5.2162496389e+02 1.0000000000e+01 0.0000e+00 -1.0000e+00
       21  1    1    2  502  501 +2.3022364485e+01 +6.5207408905e+00 +2.3763001032e+01 3.3722834197e+01 0.0000000000e+00 0.0000e+00 1.0000e+00
<mgrwt>
<rscale>  1 0.10096508E+04</rscale>
<asrwt>0</asrwt>
<pdfrwt beam="1">  1        2 0.48516635E+00 0.10096508E+04</pdfrwt>
<pdfrwt beam="2">  1       -2 0.13313188E-01 0.10096508E+04</pdfrwt>
<totfact> 0.61193758E+01</totfact>
</mgrwt>
</event>
<event>
 6      1 +3.0741590e+01 1.00109300e+03 7.81860800e-03 9.30734600e-02
       -2 -1    0    0    0  501 -0.0000000000e+00 +0.0000000000e+00 +3.8514939263e+02 3.8514939263e+02 0.0000000000e+00 0.0000e+00 1.0000e+00
        2 -1    0    0  502    0 +0.0000000000e+00 -0.0000000000e+00 -6.9105375041e+02 6.9105375041e+02 0.0000000000e+00 0.0000e+00 -1.0000e+00
  5000001  2    1    2    0    0 +1.9173312706e+01 +1.9508153351e+01 -2.8246226071e+02 1.0401793192e+03 1.0007196927e+03 0.0000e+00 0.0000e+00
  5000521  1    3    3    0    0 -2.1611724410e+02 +1.2528844994e+02 +3.0743738628e+02 3.9625951770e+02 1.0000000000e+01 0.0000e+00 1.0000e+00
 -5000521  1    3    3    0    0 +2.3529055680e+02 -1.0578029659e+02 -5.8989964699e+02 6.4391980152e+02 1.0000000000e+01 0.0000e+00 -1.0000e+00
       21  1    1    2  502  501 -1.9173312706e+01 -1.9508153351e+01 -2.3442097083e+01 3.6023823824e+01 0.0000000000e+00 0.0000e+00 -1.0000e+00
<mgrwt>
<rscale>  1 0.10010934E+04</rscale>
<asrwt>0</asrwt>
<pdfrwt beam="1">  1        2 0.10631596E+00 0.10010934E+04</pdfrwt>
<pdfrwt beam="2">  1       -2 0.59253753E-01 0.10010934E+04</pdfrwt>
<totfact> 0.11059170E+02</totfact>
</mgrwt>
</event>
<event>
 6      1 +3.0741590e+01 9.96554700e+02 7.81860800e-03 9.31233200e-02
        2 -1    0    0  502    0 -0.0000000000e+00 +0.0000000000e+00 +4.2582177905e+02 4.2582177905e+02 0.0000000000e+00 0.0000e+00 -1.0000e+00
       21 -1    0    0  501  502 +0.0000000000e+00 -0.0000000000e+00 -6.4392105907e+02 6.4392105907e+02 0.0000000000e+00 0.0000e+00 1.0000e+00
  5000001  2    1    2    0    0 -2.7714232748e+01 +1.1600057181e+01 -1.6697822714e+02 1.0104469523e+03 9.9610173934e+02 0.0000e+00 0.0000e+00
  5000521  1    3    3    0    0 +8.5231805356e-01 -4.0737485631e+02 +1.9883735271e+02 4.5342176043e+02 1.0000000000e+01 0.0000e+00 -1.0000e+00
 -5000521  1    3    3    0    0 -2.8566550802e+01 +4.1897491349e+02 -3.6581557985e+02 5.5702519191e+02 1.0000000000e+01 0.0000e+00 1.0000e+00
        2  1    1    2  501    0 +2.7714232748e+01 -1.1600057181e+01 -5.1121052882e+01 5.9295885786e+01 0.0000000000e+00 0.0000e+00 -1.0000e+00
<mgrwt>
<rscale>  1 0.99655472E+03</rscale>
<asrwt>0</asrwt>
<pdfrwt beam="1">  1       21 0.99064779E-01 0.99655472E+03</pdfrwt>
<pdfrwt beam="2">  1        2 0.65511043E-01 0.99655472E+03</pdfrwt>
<totfact> 0.65059999E+02</totfact>
</mgrwt>
</event>
<event>
 6      1 +3.0741590e+01 1.00049600e+03 7.81860800e-03 9.30800000e-02
       -2 -1    0    0    0  501 -0.0000000000e+00 +0.0000000000e+00 +4.5801965787e+02 4.5801965787e+02 0.0000000000e+00 0.0000e+00 -1.0000e+00
        2 -1    0    0  502    0 +0.0000000000e+00 -0.0000000000e+00 -5.7702834160e+02 5.7702834160e+02 0.0000000000e+00 0.0000e+00 1.0000e+00
  5000001  2    1    2    0    0 +2.9006221207e-01 +2.2829698379e+01 -1.3137089787e+02 1.0090844943e+03 1.0002359344e+03 0.0000e+00 0.0000e+00
  5000521  1    3    3    0    0 -4.3382800295e+02 +1.9532546074e+02 +1.0218285953e+02 4.8672385244e+02 1.0000000000e+01 0.0000e+00 1.0000e+00
 -5000521  1    3    3    0    0 +4.3411806516e+02 -1.7249576236e+02 -2.3355375740e+02 5.2236064182e+02 1.0000000000e+01 0.0000e+00 -1.0000e+00
       21  1    1    2  502  501 -2.9006221207e-01 -2.2829698379e+01 +1.2362214146e+01 2.5963505210e+01 0.0000000000e+00 0.0000e+00 -1.0000e+00
<mgrwt>
<rscale>  1 0.10004965E+04</rscale>
<asrwt>0</asrwt>
<pdfrwt beam="1">  1        2 0.88773591E-01 0.10004965E+04</pdfrwt>
<pdfrwt beam="2">  1       -2 0.70464563E-01 0.10004965E+04</pdfrwt>
<totfact> 0.95140850E+01</totfact>
</mgrwt>
</event>
<event>
 6      1 +3.0741590e+01 1.01419800e+03 7.81860800e-03 9.29310800e-02
        1 -1    0    0  502    0 +0.0000000000e+00 +0.0000000000e+00 +1.9465238763e+03 1.9465238763e+03 0.0000000000e+00 0.0000e+00 1.0000e+00
       -1 -1    0    0    0  501 -0.0000000000e+00 -0.0000000000e+00 -1.8406668790e+02 1.8406668790e+02 0.0000000000e+00 0.0000e+00 -1.0000e+00
  5000001  2    1    2    0    0 -1.3983780591e+02 -8.1567706387e+01 +1.6372849844e+03 1.9259543423e+03 1.0011943395e+03 0.0000e+00 0.0000e+00
  5000521  1    3    3    0    0 -4.3573000894e+02 -3.3060917691e+02 +5.6693336205e+02 7.8783025174e+02 1.0000000000e+01 0.0000e+00 1.0000e+00
 -5000521  1    3    3    0    0 +2.9589220303e+02 +2.4904147052e+02 +1.0703516224e+03 1.1381240905e+03 1.0000000000e+01 0.0000e+00 -1.0000e+00
       21  1    1    2  502  501 +1.3983780591e+02 +8.1567706387e+01 +1.2517220394e+02 2.0463622193e+02 0.0000000000e+00 0.0000e+00 -1.0000e+00
<mgrwt>
<rscale>  1 0.10141982E+04</rscale>
<asrwt>0</asrwt>
<pdfrwt beam="1">  1        1 0.29946520E+00 0.10141982E+04</pdfrwt>
<pdfrwt beam="2">  1       -1 0.28317953E-01 0.10141982E+04</pdfrwt>
<totfact> 0.36813786E+01</totfact>
</mgrwt>
</event>
<event>
 6      1 +3.0741590e+01 1.03088500e+03 7.81860800e-03 9.27530400e-02
       21 -1    0    0  501  502 +0.0000000000e+00 +0.0000000000e+00 +5.8440931767e+02 5.8440931767e+02 0.0000000000e+00 0.0000e+00 -1.0000e+00
        2 -1    0    0  502    0 -0.0000000000e+00 -0.0000000000e+00 -1.4222202181e+03 1.4222202181e+03 0.0000000000e+00 0.0000e+00 -1.0000e+00
  5000001  2    1    2    0    0 -2.0159876641e+02 +1.1020234449e+02 -1.1973246696e+03 1.5799718632e+03 1.0049567676e+03 0.0000e+00 0.0000e+00
  5000521  1    3    3    0    0 +3.9486583384e+02 -8.1810307884e+01 -4.3831029086e+02 5.9567429379e+02 1.0000000000e+01 0.0000e+00 1.0000e+00
 -5000521  1    3    3    0    0 -5.9646460025e+02 +1.9201265237e+02 -7.5901437871e+02 9.8429756939e+02 1.0000000000e+01 0.0000e+00 -1.0000e+00
        2  1    1    2  501    0 +2.0159876641e+02 -1.1020234449e+02 +3.5951376915e+02 4.2665767257e+02 0.0000000000e+00 0.0000e+00 -1.0000e+00
<mgrwt>
<rscale>  1 0.10308854E+04</rscale>
<asrwt>0</asrwt>
<pdfrwt beam="1">  1       21 0.89909127E-01 0.10308854E+04</pdfrwt>
<pdfrwt beam="2">  1        2 0.21880311E+00 0.10308854E+04</pdfrwt>
<totfact> 0.15511706E+02</totfact>
</mgrwt>
</event>
<event>
 6      1 +3.0741590e+01 1.01845200e+03 7.81860800e-03 9.28853500e-02
       -2 -1    0    0    0  501 -0.0000000000e+00 +0.0000000000e+00 +1.2529859995e+03 1.2529859995e+03 0.0000000000e+00 0.0000e+00 -1.0000e+00
        2 -1    0    0  502    0 +0.0000000000e+00 -0.0000000000e+00 -4.2533031548e+02 4.2533031548e+02 0.0000000000e+00 0.0000e+00 1.0000e+00
  5000001  2    1    2    0    0 -2.6414914434e+01 +8.8110543172e+00 +1.0449963889e+03 1.4591990761e+03 1.0180712688e+03 0.0000e+00 0.0000e+00
  5000521  1    3    3    0    0 -3.8401798799e+00 +5.0259914452e+02 +3.7812500708e+02 6.2904623680e+02 1.0000000000e+01 0.0000e+00 -1.0000e+00
 -5000521  1    3    3    0    0 -2.2574734554e+01 -4.9378809020e+02 +6.6687138182e+02 8.3015283928e+02 1.0000000000e+01 0.0000e+00 1.0000e+00
       21  1    1    2  502  501 +2.6414914434e+01 -8.8110543172e+00 -2.1734070489e+02 2.1911723890e+02 0.0000000000e+00 0.0000e+00 1.0000e+00
<mgrwt>
<rscale>  1 0.10184520E+04</rscale>
<asrwt>0</asrwt>
<pdfrwt beam="1">  1        2 0.65435434E-01 0.10184520E+04</pdfrwt>
<pdfrwt beam="2">  1       -2 0.19276708E+00 0.10184520E+04</pdfrwt>
<totfact> 0.10955864E+01</totfact>
</mgrwt>
</event>
<event>
 6      1 +3.0741590e+01 1.00723900e+03 7.81860800e-03 9.30064100e-02
        2 -1    0    0  502    0 +0.0000000000e+00 +0.0000000000e+00 +1.4124584184e+02 1.4124584184e+02 0.0000000000e+00 0.0000e+00 1.0000e+00
       -2 -1    0    0    0  501 -0.0000000000e+00 -0.0000000000e+00 -2.5745965705e+03 2.5745965705e+03 0.0000000000e+00 0.0000e+00 -1.0000e+00
  5000001  2    1    2    0    0 +9.9442977139e+01 -4.3366023612e+01 -2.3992831526e+03 2.6021317381e+03 1.0013792580e+03 0.0000e+00 0.0000e+00
  5000521  1    3    3    0    0 +3.2406353661e+02 -2.9826706006e+02 -2.1108996646e+03 2.1563807198e+03 1.0000000000e+01 0.0000e+00 -1.0000e+00
 -5000521  1    3    3    0    0 -2.2462055947e+02 +2.5490103644e+02 -2.8838348795e+02 4.4575101821e+02 1.0000000000e+01 0.0000e+00 1.0000e+00
       21  1    1    2  502  501 -9.9442977139e+01 +4.3366023612e+01 -3.4067576104e+01 1.1371067429e+02 0.0000000000e+00 0.0000e+00 1.0000e+00
<mgrwt>
<rscale>  1 0.10072388E+04</rscale>
<asrwt>0</asrwt>
<pdfrwt beam="1">  1        2 0.21730130E-01 0.10072388E+04</pdfrwt>
<pdfrwt beam="2">  1       -2 0.39609176E+00 0.10072388E+04</pdfrwt>
<totfact> 0.20827487E+00</totfact>
</mgrwt>
</event>
<event>
 6      1 +3.0741590e+01 1.00691700e+03 7.81860800e-03 9.30099000e-02
       -1 -1    0    0    0  501 -0.0000000000e+00 +0.0000000000e+00 +1.0731599176e+02 1.0731599176e+02 0.0000000000e+00 0.0000e+00 1.0000e+00
        1 -1    0    0  502    0 +0.0000000000e+00 -0.0000000000e+00 -2.5565161908e+03 2.5565161908e+03 0.0000000000e+00 0.0000e+00 -1.0000e+00
  5000001  2    1    2    0    0 -8.8726553971e+00 -3.9664514763e+01 -2.3512794012e+03 2.5578110508e+03 1.0060966907e+03 0.0000e+00 0.0000e+00
  5000521  1    3    3    0    0 -1.6962413466e+02 -4.1612149031e+02 -5.4862797718e+02 7.0924050864e+02 1.0000000000e+01 0.0000e+00 1.0000e+00
 -5000521  1    3    3    0    0 +1.6075147926e+02 +3.7645697555e+02 -1.8026514241e+03 1.8485705421e+03 1.0000000000e+01 0.0000e+00 -1.0000e+00
       21  1    1    2  502  501 +8.8726553971e+00 +3.9664514763e+01 -9.7920797776e+01 1.0602113177e+02 0.0000000000e+00 0.0000e+00 1.0000e+00
<mgrwt>
<rscale>  1 0.10069173E+04</rscale>
<asrwt>0</asrwt>
<pdfrwt beam="1">  1        1 0.39331015E+00 0.10069173E+04</pdfrwt>
<pdfrwt beam="2">  1       -1 0.16510154E-01 0.10069173E+04</pdfrwt>
<totfact> 0.35334077E+01</totfact>
</mgrwt>
</event>
<event>
 6      1 +3.0741590e+01 9.90416300e+02 7.81860800e-03 9.31911900e-02
        2 -1    0    0  502    0 +0.0000000000e+00 +0.0000000000e+00 +3.3595079933e+02 3.3595079933e+02 0.0000000000e+00 0.0000e+00 1.0000e+00
       -2 -1    0    0    0  501 -0.0000000000e+00 -0.0000000000e+00 -8.5761815077e+02 8.5761815077e+02 0.0000000000e+00 0.0000e+00 -1.0000e+00
  5000001  2    1    2    0    0 +5.8164461470e+00 -2.0354713395e+01 -5.6863816925e+02 1.1420480502e+03 9.9018999993e+02 0.0000e+00 0.0000e+00
  5000521  1    3    3    0    0 +2.1796933480e+02 +1.1379318345e+02 -7.7739968592e+02 8.1542000907e+02 1.0000000000e+01 0.0000e+00 -1.0000e+00
 -5000521  1    3    3    0    0 -2.1215288865e+02 -1.3414789684e+02 +2.0876151667e+02 3.2662804110e+02 1.0000000000e+01 0.0000e+00 1.0000e+00
       21  1    1    2  502  501 -5.8164461470e+00 +2.0354713395e+01 +4.6970817813e+01 5.1520899926e+01 0.0000000000e+00 0.0000e+00 1.0000e+00
<mgrwt>
<rscale>  1 0.99041627E+03</rscale>
<asrwt>0</asrwt>
<pdfrwt beam="1">  1        2 0.51684738E-01 0.99041627E+03</pdfrwt>
<pdfrwt beam="2">  1       -2 0.13194125E+00 0.99041627E+03</pdfrwt>
<totfact> 0.40368619E+01</totfact>
</mgrwt>
</event>
<event>
 6      1 +3.0741590e+01 9.91849200e+02 7.81860800e-03 9.31753000e-02
        2 -1    0    0  502    0 +0.0000000000e+00 +0.0000000000e+00 +1.6279315578e+03 1.6279315578e+03 0.0000000000e+00 0.0000e+00 1.0000e+00
       -2 -1    0    0    0  501 -0.0000000000e+00 -0.0000000000e+00 -1.8224979753e+02 1.8224979753e+02 0.0000000000e+00 0.0000e+00 -1.0000e+00
  5000001  2    1    2    0    0 +7.1858809078e+00 -1.9702539451e+01 +1.4729589584e+03 1.7757739073e+03 9.9162747532e+02 0.0000e+00 0.0000e+00
  5000521  1    3    3    0    0 +3.1350006568e+02 +1.9822755124e+02 +1.3176634222e+03 1.3689095469e+03 1.0000000000e+01 0.0000e+00 1.0000e+00
 -5000521  1    3    3    0    0 -3.0631418477e+02 -2.1793009069e+02 +1.5529553614e+02 4.0686436040e+02 1.0000000000e+01 0.0000e+00 -1.0000e+00
       21  1    1    2  502  501 -7.1858809078e+00 +1.9702539451e+01 -2.7277198093e+01 3.4407448046e+01 0.0000000000e+00 0.0000e+00 -1.0000e+00
<mgrwt>
<rscale>  1 0.99184922E+03</rscale>
<asrwt>0</asrwt>
<pdfrwt beam="1">  1        2 0.25045100E+00 0.99184922E+03</pdfrwt>
<pdfrwt beam="2">  1       -2 0.28038431E-01 0.99184922E+03</pdfrwt>
<totfact> 0.12500843E+02</totfact>
</mgrwt>
</event>
<event>
 6      1 +3.0741590e+01 9.98691500e+02 7.81860800e-03 9.30998100e-02
       -2 -1    0    0    0  501 -0.0000000000e+00 +0.0000000000e+00 +3.0412643942e+02 3.0412643942e+02 0.0000000000e+00 0.0000e+00 1.0000e+00
        2 -1    0    0  502    0 +0.0000000000e+00 -0.0000000000e+00 -8.6902360268e+02 8.6902360268e+02 0.0000000000e+00 0.0000e+00 -1.0000e+00
  5000001  2    1    2    0    0 -1.5754669030e+00 -2.9315336805e+01 -5.4546963246e+02 1.1379463488e+03 9.9825993698e+02 0.0000e+00 0.0000e+00
  5000521  1    3    3    0    0 -5.5823687237e+01 +2.5986913301e+02 +2.0238787950e+02 3.3422911919e+02 1.0000000000e+01 0.0000e+00 1.0000e+00
 -5000521  1    3    3    0    0 +5.4248220334e+01 -2.8918446981e+02 -7.4785751196e+02 8.0371722962e+02 1.0000000000e+01 0.0000e+00 -1.0000e+00
       21  1    1    2  502  501 +1.5754669030e+00 +2.9315336805e+01 -1.9427530804e+01 3.5203693288e+01 0.0000000000e+00 0.0000e+00 -1.0000e+00
<mgrwt>
<rscale>  1 0.99869153E+03</rscale>
<asrwt>0</asrwt>
<pdfrwt beam="1">  1        2 0.13369594E+00 0.99869153E+03</pdfrwt>
<pdfrwt beam="2">  1       -2 0.46788683E-01 0.99869153E+03</pdfrwt>
<totfact> 0.13305139E+02</totfact>
</mgrwt>
</event>
<event>
 6      1 +3.0741590e+01 9.89243700e+02 7.81860800e-03 9.32042100e-02
       -1 -1    0    0    0  501 -0.0000000000e+00 +0.0000000000e+00 +7.2946058957e+02 7.2946058957e+02 0.0000000000e+00 0.0000e+00 1.0000e+00
        1 -1    0    0  502    0 +0.0000000000e+00 -0.0000000000e+00 -4.0372097066e+02 4.0372097066e+02 0.0000000000e+00 0.0000e+00 -1.0000e+00
  5000001  2    1    2    0    0 +4.4156497668e+01 +7.6813533562e+00 +2.1307718189e+02 1.0119313058e+03 9.8822784965e+02 0.0000e+00 0.0000e+00
  5000521  1    3    3    0    0 -4.3177032846e+02 -5.9359449881e+01 -8.7949596263e+01 4.4472945968e+02 1.0000000000e+01 0.0000e+00 -1.0000e+00
 -5000521  1    3    3    0    0 +4.7592682612e+02 +6.7040803237e+01 +3.0102677816e+02 5.6720184616e+02 1.0000000000e+01 0.0000e+00 1.0000e+00
       21  1    1    2  502  501 -4.4156497668e+01 -7.6813533562e+00 +1.1266243701e+02 1.2125025439e+02 0.0000000000e+00 0.0000e+00 1.0000e+00
<mgrwt>
<rscale>  1 0.98924369E+03</rscale>
<asrwt>0</asrwt>
<pdfrwt beam="1">  1        1 0.62110919E-01 0.98924369E+03</pdfrwt>
<pdfrwt beam="2">  1       -1 0.11222471E+00 0.98924369E+03</pdfrwt>
<totfact> 0.43286258E+01</totfact>
</mgrwt>
</event>
<event>
 6      1 +3.0741590e+01 1.00660500e+03 7.81860800e-03 9.30133000e-02
        2 -1    0    0  502    0 -0.0000000000e+00 +0.0000000000e+00 +1.6015270845e+03 1.6015270845e+03 0.0000000000e+00 0.0000e+00 1.0000e+00
       21 -1    0    0  501  502 +0.0000000000e+00 -0.0000000000e+00 -2.1486056735e+02 2.1486056735e+02 0.0000000000e+00 0.0000e+00 -1.0000e+00
  5000001  2    1    2    0    0 +7.0925827413e+01 -1.1304111782e+02 +1.3379478881e+03 1.6743233279e+03 9.9772004487e+02 0.0000e+00 0.0000e+00
  5000521  1    3    3    0    0 +3.9259623543e+02 -2.8682194629e+02 +1.1793257959e+03 1.2756598159e+03 1.0000000000e+01 0.0000e+00 1.0000e+00
 -5000521  1    3    3    0    0 -3.2167040802e+02 +1.7378082846e+02 +1.5862209221e+02 3.9866351209e+02 1.0000000000e+01 0.0000e+00 -1.0000e+00
        2  1    1    2  501    0 -7.0925827413e+01 +1.1304111782e+02 +4.8718629090e+01 1.4206432393e+02 0.0000000000e+00 0.0000e+00 1.0000e+00
<mgrwt>
<rscale>  1 0.10066052E+04</rscale>
<asrwt>0</asrwt>
<pdfrwt beam="1">  1       21 0.33055473E-01 0.10066052E+04</pdfrwt>
<pdfrwt beam="2">  1        2 0.24638877E+00 0.10066052E+04</pdfrwt>
<totfact> 0.11204778E+03</totfact>
</mgrwt>
</event>
<event>
 6      1 +3.0741590e+01 1.00006100e+03 7.81860800e-03 9.30847800e-02
        2 -1    0    0  502    0 -0.0000000000e+00 +0.0000000000e+00 +1.3389174340e+03 1.3389174340e+03 0.0000000000e+00 0.0000e+00 -1.0000e+00
       21 -1    0    0  501  502 +0.0000000000e+00 -0.0000000000e+00 -2.2201266862e+02 2.2201266862e+02 0.0000000000e+00 0.0000e+00 1.0000e+00
  5000001  2    1    2    0    0 -5.0906039992e+00 +2.0205901343e+01 +1.1486251767e+03 1.5229778011e+03 9.9984368452e+02 0.0000e+00 0.0000e+00
  5000521  1    3    3    0    0 -3.9072318607e+01 -1.3720801042e+02 +1.2963510551e+03 1.3042157576e+03 1.0000000000e+01 0.0000e+00 -1.0000e+00
 -5000521  1    3    3    0    0 +3.3981714608e+01 +1.5741391177e+02 -1.4772587842e+02 2.1876204355e+02 1.0000000000e+01 0.0000e+00 1.0000e+00
        2  1    1    2  501    0 +5.0906039992e+00 -2.0205901343e+01 -3.1720411293e+01 3.7952301522e+01 0.0000000000e+00 0.0000e+00 -1.0000e+00
<mgrwt>
<rscale>  1 0.10000608E+04</rscale>
<asrwt>0</asrwt>
<pdfrwt beam="1">  1       21 0.34155796E-01 0.10000608E+04</pdfrwt>
<pdfrwt beam="2">  1        2 0.20598729E+00 0.10000608E+04</pdfrwt>
<totfact> 0.14760767E+03</totfact>
</mgrwt>
</event>
<event>
 6      1 +3.0741590e+01 1.09883900e+03 7.81860800e-03 9.20632400e-02
        2 -1    0    0  502    0 +0.0000000000e+00 +0.0000000000e+00 +1.2105308100e+03 1.2105308100e+03 0.0000000000e+00 0.0000e+00 -1.0000e+00
       -2 -1    0    0    0  501 -0.0000000000e+00 -0.0000000000e+00 -4.9605662068e+02 4.9605662068e+02 0.0000000000e+00 0.0000e+00 1.0000e+00
  5000001  2    1    2    0    0 -4.0002243593e+02 +1.6778716903e+02 +3.9431365688e+02 1.1674462155e+03 1.0095924538e+03 0.0000e+00 0.0000e+00
  5000521  1    3    3    0    0 +1.1850856208e+02 -3.4594514868e+01 +5.7028545370e+02 5.8358080712e+02 1.0000000000e+01 0.0000e+00 -1.0000e+00
 -5000521  1    3    3    0    0 -5.1853099801e+02 +2.0238168389e+02 -1.7597179681e+02 5.8386540842e+02 1.0000000000e+01 0.0000e+00 1.0000e+00
       21  1    1    2  502  501 +4.0002243593e+02 -1.6778716903e+02 +3.2016053247e+02 5.3914121516e+02 0.0000000000e+00 0.0000e+00 -1.0000e+00
<mgrwt>
<rscale>  1 0.10988391E+04</rscale>
<asrwt>0</asrwt>
<pdfrwt beam="1">  1        2 0.18623551E+00 0.10988391E+04</pdfrwt>
<pdfrwt beam="2">  1       -2 0.76316404E-01 0.10988391E+04</pdfrwt>
<totfact> 0.28357092E+01</totfact>
</mgrwt>
</event>
<event>
 6      1 +3.0741590e+01 1.03891900e+03 7.81860800e-03 9.26685900e-02
       -2 -1    0    0    0  501 -0.0000000000e+00 +0.0000000000e+00 +3.8636952517e+02 3.8636952517e+02 0.0000000000e+00 0.0000e+00 -1.0000e+00
        2 -1    0    0  502    0 +0.0000000000e+00 -0.0000000000e+00 -1.3736407504e+03 1.3736407504e+03 0.0000000000e+00 0.0000e+00 1.0000e+00
  5000001  2    1    2    0    0 -3.1742719550e+02 +3.0116938685e+01 -4.4344035557e+02 1.1295984505e+03 9.8878018584e+02 0.0000e+00 0.0000e+00
  5000521  1    3    3    0    0 +3.3824329563e+02 +5.1614775602e+01 -3.0625856001e+02 4.5931135156e+02 1.0000000000e+01 0.0000e+00 1.0000e+00
 -5000521  1    3    3    0    0 -6.5567049113e+02 -2.1497836917e+01 -1.3718179557e+02 6.7028709891e+02 1.0000000000e+01 0.0000e+00 -1.0000e+00
       21  1    1    2  502  501 +3.1742719550e+02 -3.0116938685e+01 -5.4383086969e+02 6.3041182513e+02 0.0000000000e+00 0.0000e+00 -1.0000e+00
<mgrwt>
<rscale>  1 0.10389193E+04</rscale>
<asrwt>0</asrwt>
<pdfrwt beam="1">  1        2 0.21132935E+00 0.10389193E+04</pdfrwt>
<pdfrwt beam="2">  1       -2 0.59441465E-01 0.10389193E+04</pdfrwt>
<totfact> 0.39381590E+01</totfact>
</mgrwt>
</event>
<event>
 6      1 +3.0741590e+01 1.00041300e+03 7.81860800e-03 9.30809200e-02
       -1 -1    0    0    0  501 -0.0000000000e+00 +0.0000000000e+00 +5.0514239314e+02 5.0514239314e+02 0.0000000000e+00 0.0000e+00 1.0000e+00
        1 -1    0    0  502    0 +0.0000000000e+00 -0.0000000000e+00 -7.6589186623e+02 7.6589186623e+02 0.0000000000e+00 0.0000e+00 -1.0000e+00
  5000001  2    1    2    0    0 -2.6328383560e+01 +1.6449045877e+01 -4.3727230343e+02 1.0918023857e+03 9.9993081124e+02 0.0000e+00 0.0000e+00
  5000521  1    3    3    0    0 +2.9250677639e+02 +3.0927723608e+02 -4.9724782772e+02 6.5465107131e+02 1.0000000000e+01 0.0000e+00 -1.0000e+00
 -5000521  1    3    3    0    0 -3.1883515995e+02 -2.9282819020e+02 +5.9975524289e+01 4.3715131444e+02 1.0000000000e+01 0.0000e+00 1.0000e+00
       21  1    1    2  502  501 +2.6328383560e+01 -1.6449045877e+01 +1.7652283034e+02 1.7923187363e+02 0.0000000000e+00 0.0000e+00 1.0000e+00
<mgrwt>
<rscale>  1 0.10004126E+04</rscale>
<asrwt>0</asrwt>
<pdfrwt beam="1">  1        1 0.11782952E+00 0.10004126E+04</pdfrwt>
<pdfrwt beam="2">  1       -1 0.77714215E-01 0.10004126E+04</pdfrwt>
<totfact> 0.39420319E+01</totfact>
</mgrwt>
</event>
<event>
 6      1 +3.0741590e+01 1.04117100e+03 7.81860800e-03 9.26450700e-02
       21 -1    0    0  501  502 +0.0000000000e+00 +0.0000000000e+00 +4.4613309657e+02 4.4613309657e+02 0.0000000000e+00 0.0000e+00 1.0000e+00
        2 -1    0    0  502    0 -0.0000000000e+00 -0.0000000000e+00 -1.4500778293e+03 1.4500778293e+03 0.0000000000e+00 0.0000e+00 -1.0000e+00
  5000001  2    1    2    0    0 -1.3383848431e+02 -1.9542604594e+02 -1.2000091511e+03 1.5887286736e+03 1.0138701871e+03 0.0000e+00 0.0000e+00
  5000521  1    3    3    0    0 -1.3064857445e+02 -3.8812498047e+02 -1.3058708504e+03 1.3686156248e+03 1.0000000000e+01 0.0000e+00 -1.0000e+00
 -5000521  1    3    3    0    0 -3.1899098631e+00 +1.9269893454e+02 +1.0586169926e+02 2.2011304883e+02 1.0000000000e+01 0.0000e+00 1.0000e+00
        2  1    1    2  501    0 +1.3383848431e+02 +1.9542604594e+02 +1.9606441838e+02 3.0748225228e+02 0.0000000000e+00 0.0000e+00 -1.0000e+00
<mgrwt>
<rscale>  1 0.10411709E+04</rscale>
<asrwt>0</asrwt>
<pdfrwt beam="1">  1       21 0.68635862E-01 0.10411709E+04</pdfrwt>
<pdfrwt beam="2">  1        2 0.22308889E+00 0.10411709E+04</pdfrwt>
<totfact> 0.28145989E+02</totfact>
</mgrwt>
</event>
<event>
 6      1 +3.0741590e+01 9.90596100e+02 7.81860800e-03 9.31891900e-02
        2 -1    0    0  502    0 +0.0000000000e+00 +0.0000000000e+00 +2.9617288124e+03 2.9617288124e+03 0.0000000000e+00 0.0000e+00 1.0000e+00
       -2 -1    0    0    0  501 -0.0000000000e+00 -0.0000000000e+00 -8.8593243859e+01 8.8593243859e+01 0.0000000000e+00 0.0000e+00 -1.0000e+00
  5000001  2    1    2    0    0 +2.0857242946e+01 +1.0771719905e+00 +2.7009652917e+03 2.8768896801e+03 9.9037595864e+02 0.0000e+00 0.0000e+00
  5000521  1    3    3    0    0 +1.6336697493e+02 +1.0429950664e+02 +2.6934989572e+03 2.7004821399e+03 1.0000000000e+01 0.0000e+00 1.0000e+00
 -5000521  1    3    3    0    0 -1.4250973199e+02 -1.0322233465e+02 +7.4663345303e+00 1.7640754018e+02 1.0000000000e+01 0.0000e+00 -1.0000e+00
       21  1    1    2  502  501 -2.0857242946e+01 -1.0771719905e+00 +1.7217027683e+02 1.7343237617e+02 0.0000000000e+00 0.0000e+00 -1.0000e+00
<mgrwt>
<rscale>  1 0.99059615E+03</rscale>
<asrwt>0</asrwt>
<pdfrwt beam="1">  1        2 0.45565051E+00 0.99059615E+03</pdfrwt>
<pdfrwt beam="2">  1       -2 0.13629732E-01 0.99059615E+03</pdfrwt>
<totfact> 0.77634102E+01</totfact>
</mgrwt>
</event>
<event>
 6      1 +3.0741590e+01 1.00602100e+03 7.81860800e-03 9.30196500e-02
        2 -1    0    0  502    0 +0.0000000000e+00 +0.0000000000e+00 +2.1245520529e+03 2.1245520529e+03 0.0000000000e+00 0.0000e+00 -1.0000e+00
       -2 -1    0    0    0  501 -0.0000000000e+00 -0.0000000000e+00 -1.5577467552e+02 1.5577467552e+02 0.0000000000e+00 0.0000e+00 1.0000e+00
  5000001  2    1    2    0    0 -1.3605171920e+02 -4.5924396432e+01 +1.7523486681e+03 2.0205951234e+03 9.9572068239e+02 0.0000e+00 0.0000e+00
  5000521  1    3    3    0    0 +1.1272969236e+02 -2.2667993236e+02 +1.2412487395e+01 2.5366482831e+02 1.0000000000e+01 0.0000e+00 1.0000e+00
 -5000521  1    3    3    0    0 -2.4878141157e+02 +1.8075553593e+02 +1.7399361807e+03 1.7669302951e+03 1.0000000000e+01 0.0000e+00 -1.0000e+00
       21  1    1    2  502  501 +1.3605171920e+02 +4.5924396432e+01 +2.1642870929e+02 2.5973160510e+02 0.0000000000e+00 0.0000e+00 1.0000e+00
<mgrwt>
<rscale>  1 0.10060213E+04</rscale>
<asrwt>0</asrwt>
<pdfrwt beam="1">  1        2 0.32685414E+00 0.10060213E+04</pdfrwt>
<pdfrwt beam="2">  1       -2 0.23965336E-01 0.10060213E+04</pdfrwt>
<totfact> 0.88484405E+01</totfact>
</mgrwt>
</event>
<event>
 5      1 +3.0741590e+01 7.95382700e+02 7.81860800e-03 9.56672500e-02
       -1 -1    0    0    0  501 -0.0000000000e+00 +0.0000000000e+00 +1.2684686499e+03 1.2684686499e+03 0.0000000000e+00 0.0000e+00 -1.0000e+00
        1 -1    0    0  502    0 +0.0000000000e+00 -0.0000000000e+00 -1.7487929730e+02 1.7487929730e+02 0.0000000000e+00 0.0000e+00 1.0000e+00
  5000521  1    1    2    0    0 -1.9949411595e+01 -3.7474547273e+02 +4.8964006470e+02 6.1699233489e+02 1.0000000000e+01 0.0000e+00 1.0000e+00
 -5000521  1    1    2    0    0 +3.0908857968e+00 +3.9559369923e+02 +2.4294210507e+02 4.6435416964e+02 1.0000000000e+01 0.0000e+00 -1.0000e+00
       21  1    1    2  502  501 +1.6858525799e+01 -2.0848226504e+01 +3.6100718287e+02 3.6200144271e+02 0.0000000000e+00 0.0000e+00 -1.0000e+00
<mgrwt>
<rscale>  1 0.79538269E+03</rscale>
<asrwt>0</asrwt>
<pdfrwt beam="1">  1        1 0.26904508E-01 0.79538269E+03</pdfrwt>
<pdfrwt beam="2">  1       -1 0.19514902E+00 0.79538269E+03</pdfrwt>
<totfact> 0.29414499E+01</totfact>
</mgrwt>
</event>
<event>
 6      1 +3.0741590e+01 9.92388500e+02 7.81860800e-03 9.31693300e-02
        2 -1    0    0  502    0 +0.0000000000e+00 +0.0000000000e+00 +5.8998481418e+02 5.8998481418e+02 0.0000000000e+00 0.0000e+00 1.0000e+00
       -2 -1    0    0    0  501 -0.0000000000e+00 -0.0000000000e+00 -4.7500113554e+02 4.7500113554e+02 0.0000000000e+00 0.0000e+00 -1.0000e+00
  5000001  2    1    2    0    0 -1.7792034689e+01 -3.3684891869e+01 +1.6087470540e+02 1.0053435590e+03 9.9165708401e+02 0.0000e+00 0.0000e+00
  5000521  1    3    3    0    0 +2.5883778525e+01 -2.4892263018e+02 -3.6081171937e+02 4.3922379562e+02 1.0000000000e+01 0.0000e+00 -1.0000e+00
 -5000521  1    3    3    0    0 -4.3675813214e+01 +2.1523773831e+02 +5.2168642477e+02 5.6611976334e+02 1.0000000000e+01 0.0000e+00 1.0000e+00
       21  1    1    2  502  501 +1.7792034689e+01 +3.3684891869e+01 -4.5891026763e+01 5.9642390763e+01 0.0000000000e+00 0.0000e+00 -1.0000e+00
<mgrwt>
<rscale>  1 0.99238853E+03</rscale>
<asrwt>0</asrwt>
<pdfrwt beam="1">  1        2 0.90766895E-01 0.99238853E+03</pdfrwt>
<pdfrwt beam="2">  1       -2 0.73077098E-01 0.99238853E+03</pdfrwt>
<totfact> 0.85510534E+01</totfact>
</mgrwt>
</event>
<event>
 6      1 +3.0741590e+01 1.00207000e+03 7.81860800e-03 9.30627700e-02
       21 -1    0    0  501  502 +0.0000000000e+00 +0.0000000000e+00 +4.7036415764e+02 4.7036415764e+02 0.0000000000e+00 0.0000e+00 -1.0000e+00
        1 -1    0    0  502    0 -0.0000000000e+00 -0.0000000000e+00 -1.4939493015e+03 1.4939493015e+03 0.0000000000e+00 0.0000e+00 -1.0000e+00
  5000001  2    1    2    0    0 -1.8183003707e+01 +9.5264978861e+01 -1.3172312443e+03 1.6550658720e+03 9.9736595693e+02 0.0000e+00 0.0000e+00
  5000521  1    3    3    0    0 -2.9695342890e+02 +2.1455721230e+02 -7.2113284363e+01 3.7351902504e+02 1.0000000000e+01 0.0000e+00 -1.0000e+00
 -5000521  1    3    3    0    0 +2.7877042519e+02 -1.1929223344e+02 -1.2451179599e+03 1.2815468470e+03 1.0000000000e+01 0.0000e+00 1.0000e+00
        1  1    1    2  501    0 +1.8183003707e+01 -9.5264978861e+01 +2.9364610044e+02 3.0924758709e+02 0.0000000000e+00 0.0000e+00 -1.0000e+00
<mgrwt>
<rscale>  1 0.10020703E+04</rscale>
<asrwt>0</asrwt>
<pdfrwt beam="1">  1       21 0.72363717E-01 0.10020703E+04</pdfrwt>
<pdfrwt beam="2">  1        1 0.22983835E+00 0.10020703E+04</pdfrwt>
<totfact> 0.10781252E+02</totfact>
</mgrwt>
</event>
<event>
 6      1 +3.0741590e+01 9.51279900e+02 7.81860800e-03 9.36365600e-02
        2 -1    0    0  502    0 +0.0000000000e+00 +0.0000000000e+00 +1.2872019812e+03 1.2872019812e+03 0.0000000000e+00 0.0000e+00 1.0000e+00
       -2 -1    0    0    0  501 -0.0000000000e+00 -0.0000000000e+00 -1.9923170966e+02 1.9923170966e+02 0.0000000000e+00 0.0000e+00 -1.0000e+00
  5000001  2    1    2    0    0 +4.4717682300e+01 +2.2136032873e+01 +9.7130713696e+02 1.3595480651e+03 9.4997037420e+02 0.0000e+00 0.0000e+00
  5000521  1    3    3    0    0 -1.4459717862e+02 -3.8024260794e+02 +7.7084276890e+02 8.7166011686e+02 1.0000000000e+01 0.0000e+00 1.0000e+00
 -5000521  1    3    3    0    0 +1.8931486092e+02 +4.0237864081e+02 +2.0046436807e+02 4.8788794821e+02 1.0000000000e+01 0.0000e+00 -1.0000e+00
       21  1    1    2  502  501 -4.4717682300e+01 -2.2136032873e+01 +1.1666313460e+02 1.2688562581e+02 0.0000000000e+00 0.0000e+00 1.0000e+00
<mgrwt>
<rscale>  1 0.95127987E+03</rscale>
<asrwt>0</asrwt>
<pdfrwt beam="1">  1        2 0.19803107E+00 0.95127987E+03</pdfrwt>
<pdfrwt beam="2">  1       -2 0.30651033E-01 0.95127987E+03</pdfrwt>
<totfact> 0.16564256E+02</totfact>
</mgrwt>
</event>
<event>
 6      1 +3.0741590e+01 9.98741500e+02 7.81860800e-03 9.30992600e-02
        2 -1    0    0  502    0 -0.0000000000e+00 +0.0000000000e+00 +4.5658720161e+02 4.5658720161e+02 0.0000000000e+00 0.0000e+00 1.0000e+00
       21 -1    0    0  501  502 +0.0000000000e+00 -0.0000000000e+00 -9.3154122753e+02 9.3154122753e+02 0.0000000000e+00 0.0000e+00 -1.0000e+00
  5000001  2    1    2    0    0 +3.4127672915e+00 +2.5400201024e+01 -9.0513477506e+01 1.0028345771e+03 9.9841258111e+02 0.0000e+00 0.0000e+00
  5000521  1    3    3    0    0 -5.1142064788e+01 +4.5364650447e+02 -2.7523067009e+02 5.3316281150e+02 1.0000000000e+01 0.0000e+00 -1.0000e+00
 -5000521  1    3    3    0    0 +5.4554832079e+01 -4.2824630345e+02 +1.8471719258e+02 4.6967176555e+02 1.0000000000e+01 0.0000e+00 1.0000e+00
        2  1    1    2  501    0 -3.4127672915e+00 -2.5400201024e+01 -3.8444054842e+02 3.8529385209e+02 0.0000000000e+00 0.0000e+00 1.0000e+00
<mgrwt>
<rscale>  1 0.99874146E+03</rscale>
<asrwt>0</asrwt>
<pdfrwt beam="1">  1       21 0.14331403E+00 0.99874146E+03</pdfrwt>
<pdfrwt beam="2">  1        2 0.70244185E-01 0.99874146E+03</pdfrwt>
<totfact> 0.23017401E+02</totfact>
</mgrwt>
</event>
<event>
 6      1 +3.0741590e+01 1.00171300e+03 7.81860800e-03 9.30666800e-02
        2 -1    0    0  502    0 +0.0000000000e+00 +0.0000000000e+00 +2.4261967881e+03 2.4261967881e+03 0.0000000000e+00 0.0000e+00 -1.0000e+00
       -2 -1    0    0    0  501 -0.0000000000e+00 -0.0000000000e+00 -1.1121542878e+02 1.1121542878e+02 0.0000000000e+00 0.0000e+00 1.0000e+00
  5000001  2    1    2    0    0 -2.6148945785e+01 +1.9988422163e+01 +2.1908964487e+03 2.4090363257e+03 1.0011720458e+03 0.0000e+00 0.0000e+00
  5000521  1    3    3    0    0 +3.2194511278e+02 +3.8143389019e+02 +1.1329587988e+03 1.2380775856e+03 1.0000000000e+01 0.0000e+00 1.0000e+00
 -5000521  1    3    3    0    0 -3.4809405857e+02 -3.6144546803e+02 +1.0579376499e+03 1.1709587401e+03 1.0000000000e+01 0.0000e+00 -1.0000e+00
       21  1    1    2  502  501 +2.6148945785e+01 -1.9988422163e+01 +1.2408491065e+02 1.2837589118e+02 0.0000000000e+00 0.0000e+00 -1.0000e+00
<mgrwt>
<rscale>  1 0.10017129E+04</rscale>
<asrwt>0</asrwt>
<pdfrwt beam="1">  1        2 0.37326100E+00 0.10017129E+04</pdfrwt>
<pdfrwt beam="2">  1       -2 0.17110068E-01 0.10017129E+04</pdfrwt>
<totfact> 0.10865010E+02</totfact>
</mgrwt>
</event>
<event>
 6      1 +3.0741590e+01 1.00266600e+03 7.81860800e-03 9.30562500e-02
       -2 -1    0    0    0  501 -0.0000000000e+00 +0.0000000000e+00 +9.5968872236e+02 9.5968872236e+02 0.0000000000e+00 0.0000e+00 1.0000e+00
        2 -1    0    0  502    0 +0.0000000000e+00 -0.0000000000e+00 -8.8792325541e+02 8.8792325541e+02 0.0000000000e+00 0.0000e+00 -1.0000e+00
  5000001  2    1    2    0    0 +3.3616777686e+01 -2.9963455915e+01 -6.0387536734e+02 1.1704720857e+03 1.0016544054e+03 0.0000e+00 0.0000e+00
  5000521  1    3    3    0    0 +2.1639591368e+02 -8.5043105553e+01 +2.2268213777e+02 3.2209758729e+02 1.0000000000e+01 0.0000e+00 1.0000e+00
 -5000521  1    3    3    0    0 -1.8277913599e+02 +5.5079649638e+01 -8.2655750510e+02 8.4837449844e+02 1.0000000000e+01 0.0000e+00 -1.0000e+00
       21  1    1    2  502  501 -3.3616777686e+01 +2.9963455915e+01 +6.7564083429e+02 6.7713989204e+02 0.0000000000e+00 0.0000e+00 1.0000e+00
<mgrwt>
<rscale>  1 0.10026662E+04</rscale>
<asrwt>0</asrwt>
<pdfrwt beam="1">  1        2 0.13660358E+00 0.10026662E+04</pdfrwt>
<pdfrwt beam="2">  1       -2 0.14764442E+00 0.10026662E+04</pdfrwt>
<totfact> 0.92559079E+00</totfact>
</mgrwt>
</event>
<event>
 6      1 +3.0741590e+01 1.08574800e+03 7.81860800e-03 9.21919600e-02
       -2 -1    0    0    0  501 -0.0000000000e+00 +0.0000000000e+00 +3.4304235074e+02 3.4304235074e+02 0.0000000000e+00 0.0000e+00 1.0000e+00
        2 -1    0    0  502    0 +0.0000000000e+00 -0.0000000000e+00 -1.0325255954e+03 1.0325255954e+03 0.0000000000e+00 0.0000e+00 -1.0000e+00
  5000001  2    1    2    0    0 +2.4983364437e+01 +1.0807392601e+01 -7.4292491211e+02 1.3155931176e+03 1.0854063100e+03 0.0000e+00 0.0000e+00
  5000521  1    3    3    0    0 +5.3848538978e+02 -1.1502226055e+02 -3.0854307903e+02 6.3126497372e+02 1.0000000000e+01 0.0000e+00 1.0000e+00
 -5000521  1    3    3    0    0 -5.1350202534e+02 +1.2582965315e+02 -4.3438183307e+02 6.8432814391e+02 1.0000000000e+01 0.0000e+00 -1.0000e+00
       21  1    1    2  502  501 -2.4983364437e+01 -1.0807392601e+01 +5.3441667455e+01 5.9974828502e+01 0.0000000000e+00 0.0000e+00 1.0000e+00
<mgrwt>
<rscale>  1 0.10857476E+04</rscale>
<asrwt>0</asrwt>
<pdfrwt beam="1">  1        2 0.15885009E+00 0.10857476E+04</pdfrwt>
<pdfrwt beam="2">  1       -2 0.52775746E-01 0.10857476E+04</pdfrwt>
<totfact> 0.80721633E+01</totfact>
</mgrwt>
</event>
<event>
 6      1 +3.0741590e+01 1.03498700e+03 7.81860800e-03 9.27098300e-02
       -2 -1    0    0    0  501 -0.0000000000e+00 +0.0000000000e+00 +2.6567101254e+02 2.6567101254e+02 0.0000000000e+00 0.0000e+00 1.0000e+00
        2 -1    0    0  502    0 +0.0000000000e+00 -0.0000000000e+00 -1.9318797589e+03 1.9318797589e+03 0.0000000000e+00 0.0000e+00 -1.0000e+00
  5000001  2    1    2    0    0 -9.4204935821e+00 -5.2332232993e+01 -7.4602836173e+02 1.2758353335e+03 1.0336198882e+03 0.0000e+00 0.0000e+00
  5000521  1    3    3    0    0 +2.9971983623e+02 +3.1591796589e+01 +1.4085577796e+02 3.3282183226e+02 1.0000000000e+01 0.0000e+00 1.0000e+00
 -5000521  1    3    3    0    0 -3.0914032982e+02 -8.3924029582e+01 -8.8688413969e+02 9.4301350122e+02 1.0000000000e+01 0.0000e+00 -1.0000e+00
       21  1    1    2  502  501 +9.4204935821e+00 +5.2332232993e+01 -9.2018038467e+02 9.2171543800e+02 0.0000000000e+00 0.0000e+00 1.0000e+00
<mgrwt>
<rscale>  1 0.10349867E+04</rscale>
<asrwt>0</asrwt>
<pdfrwt beam="1">  1        2 0.29721227E+00 0.10349867E+04</pdfrwt>
<pdfrwt beam="2">  1       -2 0.40872464E-01 0.10349867E+04</pdfrwt>
<totfact> 0.41324875E+01</totfact>
</mgrwt>
</event>
<event>
 6      1 +3.0741590e+01 9.97031700e+02 7.81860800e-03 9.31180600e-02
       -2 -1    0    0    0  501 -0.0000000000e+00 +0.0000000000e+00 +1.2264912442e+02 1.2264912442e+02 0.0000000000e+00 0.0000e+00 1.0000e+00
        2 -1    0    0  502    0 +0.0000000000e+00 -0.0000000000e+00 -2.3295891456e+03 2.3295891456e+03 0.0000000000e+00 0.0000e+00 -1.0000e+00
  5000001  2    1    2    0    0 +2.1664642904e+01 -1.1995764259e+01 -1.9127543145e+03 2.1570121107e+03 9.9672409578e+02 0.0000e+00 0.0000e+00
  5000521  1    3    3    0    0 +3.3533888366e+02 -1.4616606345e+02 -1.7330857814e+03 1.7712998083e+03 1.0000000000e+01 0.0000e+00 -1.0000e+00
 -5000521  1    3    3    0    0 -3.1367424076e+02 +1.3417029919e+02 -1.7966853308e+02 3.8571230247e+02 1.0000000000e+01 0.0000e+00 1.0000e+00
       21  1    1    2  502  501 -2.1664642904e+01 +1.1995764259e+01 -2.9418570670e+02 2.9522615930e+02 0.0000000000e+00 0.0000e+00 -1.0000e+00
<mgrwt>
<rscale>  1 0.99703168E+03</rscale>
<asrwt>0</asrwt>
<pdfrwt beam="1">  1        2 0.35839834E+00 0.99703168E+03</pdfrwt>
<pdfrwt beam="2">  1       -2 0.18869096E-01 0.99703168E+03</pdfrwt>
<totfact> 0.10399352E+02</totfact>
</mgrwt>
</event>
<event>
 6      1 +3.0741590e+01 2.27328300e+03 7.81860800e-03 8.48853000e-02
        2 -1    0    0  502    0 -0.0000000000e+00 +0.0000000000e+00 +8.3609438622e+02 8.3609438622e+02 0.0000000000e+00 0.0000e+00 -1.0000e+00
       21 -1    0    0  501  502 +0.0000000000e+00 -0.0000000000e+00 -1.5452250561e+03 1.5452250561e+03 0.0000000000e+00 0.0000e+00 -1.0000e+00
  5000001  2    1    2    0    0 -2.4565383549e+02 -7.4666419568e+02 +1.1056964500e+02 1.2456426247e+03 9.5997222562e+02 0.0000e+00 0.0000e+00
  5000521  1    3    3    0    0 +2.6249410820e+02 -3.6722839603e+01 -1.8552793490e+02 3.2368555485e+02 1.0000000000e+01 0.0000e+00 1.0000e+00
 -5000521  1    3    3    0    0 -5.0814794369e+02 -7.0994135608e+02 +2.9609757990e+02 9.2195706981e+02 1.0000000000e+01 0.0000e+00 -1.0000e+00
        2  1    1    2  501    0 +2.4565383549e+02 +7.4666419568e+02 -8.1970031491e+02 1.1356768177e+03 0.0000000000e+00 0.0000e+00 -1.0000e+00
<mgrwt>
<rscale>  1 0.22732831E+04</rscale>
<asrwt>0</asrwt>
<pdfrwt beam="1">  1       21 0.23772693E+00 0.22732831E+04</pdfrwt>
<pdfrwt beam="2">  1        2 0.12862991E+00 0.22732831E+04</pdfrwt>
<totfact> 0.19507608E+01</totfact>
</mgrwt>
</event>
<event>
 6      1 +3.0741590e+01 1.00071200e+03 7.81860800e-03 9.30776500e-02
       -2 -1    0    0    0  501 -0.0000000000e+00 +0.0000000000e+00 +1.0214317405e+02 1.0214317405e+02 0.0000000000e+00 0.0000e+00 1.0000e+00
        2 -1    0    0  502    0 +0.0000000000e+00 -0.0000000000e+00 -2.9435422534e+03 2.9435422534e+03 0.0000000000e+00 0.0000e+00 -1.0000e+00
  5000001  2    1    2    0    0 -1.6085677205e+01 +1.6497806053e+01 -2.8503901935e+03 3.0209515085e+03 1.0004463178e+03 0.0000e+00 0.0000e+00
  5000521  1    3    3    0    0 +3.6374053521e+02 +1.0545290338e+02 -2.3790885685e+03 2.4090641147e+03 1.0000000000e+01 0.0000e+00 -1.0000e+00
 -5000521  1    3    3    0    0 -3.7982621242e+02 -8.8955097323e+01 -4.7130162496e+02 6.1188739378e+02 1.0000000000e+01 0.0000e+00 1.0000e+00
       21  1    1    2  502  501 +1.6085677205e+01 -1.6497806053e+01 +8.9911141203e+00 2.4733918995e+01 0.0000000000e+00 0.0000e+00 -1.0000e+00
<mgrwt>
<rscale>  1 0.10007116E+04</rscale>
<asrwt>0</asrwt>
<pdfrwt beam="1">  1        2 0.45285264E+00 0.10007116E+04</pdfrwt>
<pdfrwt beam="2">  1       -2 0.15714335E-01 0.10007116E+04</pdfrwt>
<totfact> 0.62505213E+01</totfact>
</mgrwt>
</event>
<event>
 6      1 +3.0741590e+01 9.91501200e+02 7.81860800e-03 9.31791600e-02
       -1 -1    0    0    0  501 -0.0000000000e+00 +0.0000000000e+00 +3.7215701439e+03 3.7215701439e+03 0.0000000000e+00 0.0000e+00 1.0000e+00
        1 -1    0    0  502    0 +0.0000000000e+00 -0.0000000000e+00 -1.0202808000e+02 1.0202808000e+02 0.0000000000e+00 0.0000e+00 -1.0000e+00
  5000001  2    1    2    0    0 +4.2944886008e+01 -4.0081484852e+01 +2.3232785203e+03 2.5260043109e+03 9.8975951977e+02 0.0000e+00 0.0000e+00
  5000521  1    3    3    0    0 -1.7208880589e+02 +3.0515719973e+02 +1.9250456198e+03 1.9566900909e+03 1.0000000000e+01 0.0000e+00 1.0000e+00
 -5000521  1    3    3    0    0 +2.1503369189e+02 -3.4523868458e+02 +3.9823290053e+02 5.6931421996e+02 1.0000000000e+01 0.0000e+00 -1.0000e+00
       21  1    1    2  502  501 -4.2944886008e+01 +4.0081484852e+01 +1.2962635435e+03 1.2975939130e+03 0.0000000000e+00 0.0000e+00 -1.0000e+00
<mgrwt>
<rscale>  1 0.99150123E+03</rscale>
<asrwt>0</asrwt>
<pdfrwt beam="1">  1        1 0.15696631E-01 0.99150123E+03</pdfrwt>
<pdfrwt beam="2">  1       -1 0.57254915E+00 0.99150123E+03</pdfrwt>
<totfact> 0.20944395E-01</totfact>
</mgrwt>
</event>
<event>
 6      1 +3.0741590e+01 1.00372800e+03 7.81860800e-03 9.30446600e-02
        1 -1    0    0  502    0 +0.0000000000e+00 +0.0000000000e+00 +2.7670263612e+03 2.7670263612e+03 0.0000000000e+00 0.0000e+00 -1.0000e+00
       -1 -1    0    0    0  501 -0.0000000000e+00 -0.0000000000e+00 -1.2431941326e+02 1.2431941326e+02 0.0000000000e+00 0.0000e+00 1.0000e+00
  5000001  2    1    2    0    0 +1.4715485606e+02 +8.2551168765e+01 +2.2299488473e+03 2.4454326699e+03 9.8944420486e+02 0.0000e+00 0.0000e+00
  5000521  1    3    3    0    0 +4.8691380806e+02 -2.1440566842e+02 +9.5930114337e+02 1.0970020651e+03 1.0000000000e+01 0.0000e+00 1.0000e+00
 -5000521  1    3    3    0    0 -3.3975895200e+02 +2.9695683719e+02 +1.2706477039e+03 1.3484306049e+03 1.0000000000e+01 0.0000e+00 -1.0000e+00
       21  1    1    2  502  501 -1.4715485606e+02 -8.2551168765e+01 +4.1275810061e+02 4.4591310448e+02 0.0000000000e+00 0.0000e+00 1.0000e+00
<mgrwt>
<rscale>  1 0.10037276E+04</rscale>
<asrwt>0</asrwt>
<pdfrwt beam="1">  1        1 0.42569632E+00 0.10037276E+04</pdfrwt>
<pdfrwt beam="2">  1       -1 0.19126066E-01 0.10037276E+04</pdfrwt>
<totfact> 0.19762420E+01</totfact>
</mgrwt>
</event>
<event>
 6      1 +3.0741590e+01 9.80605200e+02 7.81860800e-03 9.33007600e-02
        2 -1    0    0  502    0 -0.0000000000e+00 +0.0000000000e+00 +1.2841542039e+03 1.2841542039e+03 0.0000000000e+00 0.0000e+00 1.0000e+00
       21 -1    0    0  501  502 +0.0000000000e+00 -0.0000000000e+00 -2.3908577026e+02 2.3908577026e+02 0.0000000000e+00 0.0000e+00 -1.0000e+00
  5000001  2    1    2    0    0 -3.2256316909e+01 +5.7492122945e+01 +1.0712613900e+03 1.4523041923e+03 9.7838677785e+02 0.0000e+00 0.0000e+00
  5000521  1    3    3    0    0 -1.2678515866e+02 -2.4230017243e+02 +1.1027820981e+03 1.1362271806e+03 1.0000000000e+01 0.0000e+00 1.0000e+00
 -5000521  1    3    3    0    0 +9.4528841748e+01 +2.9979229538e+02 -3.1520708092e+01 3.1607701170e+02 1.0000000000e+01 0.0000e+00 -1.0000e+00
        2  1    1    2  501    0 +3.2256316909e+01 -5.7492122945e+01 -2.6192956399e+01 7.0935781846e+01 0.0000000000e+00 0.0000e+00 1.0000e+00
<mgrwt>
<rscale>  1 0.98060517E+03</rscale>
<asrwt>0</asrwt>
<pdfrwt beam="1">  1       21 0.36782427E-01 0.98060517E+03</pdfrwt>
<pdfrwt beam="2">  1        2 0.19756218E+00 0.98060517E+03</pdfrwt>
<totfact> 0.13663809E+03</totfact>
</mgrwt>
</event>
<event>
 6      1 +3.0741590e+01 1.01947000e+03 7.81860800e-03 9.28744500e-02
        1 -1    0    0  502    0 -0.0000000000e+00 +0.0000000000e+00 +1.3331281848e+03 1.3331281848e+03 0.0000000000e+00 0.0000e+00 -1.0000e+00
       21 -1    0    0  501  502 +0.0000000000e+00 -0.0000000000e+00 -2.6221852614e+02 2.6221852614e+02 0.0000000000e+00 0.0000e+00 1.0000e+00
  5000001  2    1    2    0    0 +1.3856780975e+02 -8.5502146259e+01 +9.3332181184e+02 1.3821752529e+03 1.0063832125e+03 0.0000e+00 0.0000e+00
  5000521  1    3    3    0    0 +3.3241373228e+02 +3.8596886317e+02 +4.5566153478e+02 6.8351904657e+02 1.0000000000e+01 0.0000e+00 -1.0000e+00
 -5000521  1    3    3    0    0 -1.9384592253e+02 -4.7147100943e+02 +4.7766027706e+02 6.9865620637e+02 1.0000000000e+01 0.0000e+00 1.0000e+00
        1  1    1    2  501    0 -1.3856780975e+02 +8.5502146259e+01 +1.3758784679e+02 2.1317145799e+02 0.0000000000e+00 0.0000e+00 -1.0000e+00
<mgrwt>
<rscale>  1 0.10194699E+04</rscale>
<asrwt>0</asrwt>
<pdfrwt beam="1">  1       21 0.40341313E-01 0.10194699E+04</pdfrwt>
<pdfrwt beam="2">  1        1 0.20509664E+00 0.10194699E+04</pdfrwt>
<totfact> 0.50210019E+02</totfact>
</mgrwt>
</event>
<event>
 6      1 +3.0741590e+01 1.00134900e+03 7.81860800e-03 9.30706700e-02
        4 -1    0    0  502    0 -0.0000000000e+00 +0.0000000000e+00 +2.9640427507e+02 2.9640427507e+02 0.0000000000e+00 0.0000e+00 -1.0000e+00
       21 -1    0    0  501  502 +0.0000000000e+00 -0.0000000000e+00 -1.0161269852e+03 1.0161269852e+03 0.0000000000e+00 0.0000e+00 1.0000e+00
  5000001  2    1    2    0    0 +2.8229566882e+01 +3.5240703572e+01 -5.6158892001e+02 1.1480772813e+03 1.0003302020e+03 0.0000e+00 0.0000e+00
  5000521  1    3    3    0    0 -9.7163912634e+01 +2.6720010788e+02 -7.6417012246e+02 8.1540952878e+02 1.0000000000e+01 0.0000e+00 1.0000e+00
 -5000521  1    3    3    0    0 +1.2539347952e+02 -2.3195940431e+02 +2.0258120245e+02 3.3266775247e+02 1.0000000000e+01 0.0000e+00 -1.0000e+00
        4  1    1    2  501    0 -2.8229566882e+01 -3.5240703572e+01 -1.5813379016e+02 1.6445397904e+02 0.0000000000e+00 0.0000e+00 -1.0000e+00
<mgrwt>
<rscale>  1 0.10013488E+04</rscale>
<asrwt>0</asrwt>
<pdfrwt beam="1">  1       21 0.15632723E+00 0.10013488E+04</pdfrwt>
<pdfrwt beam="2">  1        4 0.45600657E-01 0.10013488E+04</pdfrwt>
<totfact> 0.45142858E+01</totfact>
</mgrwt>
</event>
<event>
 6      1 +3.0741590e+01 9.67651100e+02 7.81860800e-03 9.34475400e-02
       -1 -1    0    0    0  501 -0.0000000000e+00 +0.0000000000e+00 +1.2496240231e+02 1.2496240231e+02 0.0000000000e+00 0.0000e+00 -1.0000e+00
        1 -1    0    0  502    0 +0.0000000000e+00 -0.0000000000e+00 -1.9880131676e+03 1.9880131676e+03 0.0000000000e+00 0.0000e+00 1.0000e+00
  5000001  2    1    2    0    0 -3.0250627411e+00 +2.0261470581e+01 -1.7654374253e+03 2.0132356966e+03 9.6743422980e+02 0.0000e+00 0.0000e+00
  5000521  1    3    3    0    0 +1.7924340923e+02 -1.2744010410e+02 +1.1876606412e+01 2.2047728606e+02 1.0000000000e+01 0.0000e+00 -1.0000e+00
 -5000521  1    3    3    0    0 -1.8226847198e+02 +1.4770157468e+02 -1.7773140317e+03 1.7927584105e+03 1.0000000000e+01 0.0000e+00 1.0000e+00
       21  1    1    2  502  501 +3.0250627411e+00 -2.0261470581e+01 -9.7613339923e+01 9.9739873299e+01 0.0000000000e+00 0.0000e+00 1.0000e+00
<mgrwt>
<rscale>  1 0.96765111E+03</rscale>
<asrwt>0</asrwt>
<pdfrwt beam="1">  1        1 0.30584815E+00 0.96765111E+03</pdfrwt>
<pdfrwt beam="2">  1       -1 0.19224987E-01 0.96765111E+03</pdfrwt>
<totfact> 0.67015622E+01</totfact>
</mgrwt>
</event>
<event>
 6      1 +3.0741590e+01 9.51636500e+02 7.81860800e-03 9.36324000e-02
        4 -1    0    0  502    0 +0.0000000000e+00 +0.0000000000e+00 +1.5386451103e+02 1.5386451103e+02 0.0000000000e+00 0.0000e+00 1.0000e+00
       -4 -1    0    0    0  501 -0.0000000000e+00 -0.0000000000e+00 -1.6006187562e+03 1.6006187562e+03 0.0000000000e+00 0.0000e+00 -1.0000e+00
  5000001  2    1    2    0    0 +3.8907966391e+01 -6.6940057581e+00 -1.4056755991e+03 1.6975087578e+03 9.5081725548e+02 0.0000e+00 0.0000e+00
  5000521  1    3    3    0    0 +4.2182706493e+02 +8.3785614020e+01 -1.1508619835e+03 1.2286339597e+03 1.0000000000e+01 0.0000e+00 1.0000e+00
 -5000521  1    3    3    0    0 -3.8291909854e+02 -9.0479619778e+01 -2.5481361563e+02 4.6887479814e+02 1.0000000000e+01 0.0000e+00 -1.0000e+00
       21  1    1    2  502  501 -3.8907966391e+01 +6.6940057581e+00 -4.1078646058e+01 5.6974509421e+01 0.0000000000e+00 0.0000e+00 1.0000e+00
<mgrwt>
<rscale>  1 0.95163653E+03</rscale>
<asrwt>0</asrwt>
<pdfrwt beam="1">  1        4 0.23671462E-01 0.95163653E+03</pdfrwt>
<pdfrwt beam="2">  1       -4 0.24624905E+00 0.95163653E+03</pdfrwt>
<totfact> 0.22618001E+00</totfact>
</mgrwt>
</event>
<event>
 6      1 +3.0741590e+01 1.00769300e+03 7.81860800e-03 9.30014800e-02
        2 -1    0    0  502    0 +0.0000000000e+00 +0.0000000000e+00 +8.3136691591e+02 8.3136691591e+02 0.0000000000e+00 0.0000e+00 -1.0000e+00
       -2 -1    0    0    0  501 -0.0000000000e+00 -0.0000000000e+00 -5.9525505094e+02 5.9525505094e+02 0.0000000000e+00 0.0000e+00 1.0000e+00
  5000001  2    1    2    0    0 +3.8514732993e+01 -1.6932654063e+01 +5.2392082952e+02 1.1357541283e+03 1.0068139376e+03 0.0000e+00 0.0000e+00
  5000521  1    3    3    0    0 +2.6000483717e+02 -3.9132943536e+02 +2.0548996630e+01 4.7038654699e+02 1.0000000000e+01 0.0000e+00 1.0000e+00
 -5000521  1    3    3    0    0 -2.2149010418e+02 +3.7439678130e+02 +5.0337183289e+02 6.6536758130e+02 1.0000000000e+01 0.0000e+00 -1.0000e+00
       21  1    1    2  502  501 -3.8514732993e+01 +1.6932654063e+01 -2.8780896455e+02 2.9086783855e+02 0.0000000000e+00 0.0000e+00 1.0000e+00
<mgrwt>
<rscale>  1 0.10076926E+04</rscale>
<asrwt>0</asrwt>
<pdfrwt beam="1">  1        2 0.12790260E+00 0.10076926E+04</pdfrwt>
<pdfrwt beam="2">  1       -2 0.91577700E-01 0.10076926E+04</pdfrwt>
<totfact> 0.33032366E+01</totfact>
</mgrwt>
</event>
<event>
 6      1 +3.0741590e+01 1.14954900e+03 7.81860800e-03 9.15820000e-02
       -1 -1    0    0    0  501 -0.0000000000e+00 +0.0000000000e+00 +1.0938889319e+03 1.0938889319e+03 0.0000000000e+00 0.0000e+00 -1.0000e+00
        1 -1    0    0  502    0 +0.0000000000e+00 -0.0000000000e+00 -9.2185477721e+02 9.2185477721e+02 0.0000000000e+00 0.0000e+00 1.0000e+00
  5000001  2    1    2    0    0 -2.1292074882e+02 -2.9253654264e+02 +7.2196558293e+02 1.3574599938e+03 1.0911234842e+03 0.0000e+00 0.0000e+00
  5000521  1    3    3    0    0 +7.8232943560e+01 -2.2272449086e+02 +9.5128675861e+02 9.8019033325e+02 1.0000000000e+01 0.0000e+00 -1.0000e+00
 -5000521  1    3    3    0    0 -2.9115369238e+02 -6.9812051777e+01 -2.2932117568e+02 3.7726966056e+02 1.0000000000e+01 0.0000e+00 1.0000e+00
       21  1    1    2  502  501 +2.1292074882e+02 +2.9253654264e+02 -5.4993142824e+02 6.5828371530e+02 0.0000000000e+00 0.0000e+00 1.0000e+00
<mgrwt>
<rscale>  1 0.11495492E+04</rscale>
<asrwt>0</asrwt>
<pdfrwt beam="1">  1        1 0.14182381E+00 0.11495492E+04</pdfrwt>
<pdfrwt beam="2">  1       -1 0.16829061E+00 0.11495492E+04</pdfrwt>
<totfact> 0.43660755E+00</totfact>
</mgrwt>
</event>
<event>
 6      1 +3.0741590e+01 9.95326300e+02 7.81860800e-03 9.31368600e-02
        1 -1    0    0  502    0 +0.0000000000e+00 +0.0000000000e+00 +4.0160017261e+02 4.0160017261e+02 0.0000000000e+00 0.0000e+00 1.0000e+00
       -1 -1    0    0    0  501 -0.0000000000e+00 -0.0000000000e+00 -7.0668477261e+02 7.0668477261e+02 0.0000000000e+00 0.0000e+00 -1.0000e+00
  5000001  2    1    2    0    0 +6.1166909084e+01 -3.3877779394e+01 -2.9056254039e+02 1.0368707665e+03 9.9286721262e+02 0.0000e+00 0.0000e+00
  5000521  1    3    3    0    0 +5.1806655245e+02 -9.1549845787e+01 -2.2224711811e+02 5.7119883451e+02 1.0000000000e+01 0.0000e+00 1.0000e+00
 -5000521  1    3    3    0    0 -4.5689964337e+02 +5.7672066393e+01 -6.8315422278e+01 4.6567193202e+02 1.0000000000e+01 0.0000e+00 -1.0000e+00
       21  1    1    2  502  501 -6.1166909084e+01 +3.3877779394e+01 -1.4522059607e+01 7.1414178696e+01 0.0000000000e+00 0.0000e+00 1.0000e+00
<mgrwt>
<rscale>  1 0.99532628E+03</rscale>
<asrwt>0</asrwt>
<pdfrwt beam="1">  1        1 0.61784643E-01 0.99532628E+03</pdfrwt>
<pdfrwt beam="2">  1       -1 0.10872073E+00 0.99532628E+03</pdfrwt>
<totfact> 0.46980509E+01</totfact>
</mgrwt>
</event>
<event>
 6      1 +3.0741590e+01 1.03358500e+03 7.81860800e-03 9.27245700e-02
       -1 -1    0    0    0  501 -0.0000000000e+00 +0.0000000000e+00 +7.5759055832e+02 7.5759055832e+02 0.0000000000e+00 0.0000e+00 -1.0000e+00
       21 -1    0    0  501  502 +0.0000000000e+00 -0.0000000000e+00 -6.8178353767e+02 6.8178353767e+02 0.0000000000e+00 0.0000e+00 1.0000e+00
  5000001  2    1    2    0    0 -5.3544741515e+01 -1.7735199782e+02 +3.6482150360e+02 1.0960810115e+03 1.0168471291e+03 0.0000e+00 0.0000e+00
  5000521  1    3    3    0    0 -4.7857967357e+02 -2.8708439391e+02 +3.4575088015e+02 6.5658177275e+02 1.0000000000e+01 0.0000e+00 1.0000e+00
 -5000521  1    3    3    0    0 +4.2503493205e+02 +1.0973239609e+02 +1.9070623450e+01 4.3949923879e+02 1.0000000000e+01 0.0000e+00 -1.0000e+00
       -1  1    1    2    0  502 +5.3544741515e+01 +1.7735199782e+02 -2.8901448295e+02 3.4329308445e+02 0.0000000000e+00 0.0000e+00 -1.0000e+00
<mgrwt>
<rscale>  1 0.10335854E+04</rscale>
<asrwt>0</asrwt>
<pdfrwt beam="1">  1       21 0.10488977E+00 0.10335854E+04</pdfrwt>
<pdfrwt beam="2">  1       -1 0.11655239E+00 0.10335854E+04</pdfrwt>
<totfact> 0.37871138E+01</totfact>
</mgrwt>
</event>
<event>
 6      1 +3.0741590e+01 9.93753200e+02 7.81860800e-03 9.31542300e-02
        2 -1    0    0  502    0 +0.0000000000e+00 +0.0000000000e+00 +1.1491273577e+03 1.1491273577e+03 0.0000000000e+00 0.0000e+00 1.0000e+00
       -2 -1    0    0    0  501 -0.0000000000e+00 -0.0000000000e+00 -2.5715372219e+02 2.5715372219e+02 0.0000000000e+00 0.0000e+00 -1.0000e+00
  5000001  2    1    2    0    0 +5.2743250127e+01 +3.3455166730e+01 +7.3112009572e+02 1.2337268569e+03 9.9178841717e+02 0.0000e+00 0.0000e+00
  5000521  1    3    3    0    0 -3.5179309618e+01 +3.1018982782e+02 +8.6068674146e+02 9.1560743773e+02 1.0000000000e+01 0.0000e+00 1.0000e+00
 -5000521  1    3    3    0    0 +8.7922559745e+01 -2.7673466109e+02 -1.2956664574e+02 3.1811941916e+02 1.0000000000e+01 0.0000e+00 -1.0000e+00
       21  1    1    2  502  501 -5.2743250127e+01 -3.3455166730e+01 +1.6085353979e+02 1.7255422301e+02 0.0000000000e+00 0.0000e+00 -1.0000e+00
<mgrwt>
<rscale>  1 0.99375317E+03</rscale>
<asrwt>0</asrwt>
<pdfrwt beam="1">  1        2 0.17678882E+00 0.99375317E+03</pdfrwt>
<pdfrwt beam="2">  1       -2 0.39562112E-01 0.99375317E+03</pdfrwt>
<totfact> 0.12256905E+02</totfact>
</mgrwt>
</event>
<event>
 6      1 +3.0741590e+01 1.01165000e+03 7.81860800e-03 9.29585900e-02
        2 -1    0    0  502    0 +0.0000000000e+00 +0.0000000000e+00 +1.4418326234e+03 1.4418326234e+03 0.0000000000e+00 0.0000e+00 1.0000e+00
       -2 -1    0    0    0  501 -0.0000000000e+00 -0.0000000000e+00 -1.8888525527e+02 1.8888525527e+02 0.0000000000e+00 0.0000e+00 -1.0000e+00
  5000001  2    1    2    0    0 -1.3468797474e+01 +2.0396467944e+01 +1.2466418481e+03 1.6054753750e+03 1.0113544670e+03 0.0000e+00 0.0000e+00
  5000521  1    3    3    0    0 +1.8315761176e+02 -4.0480596451e+02 +2.6423484414e+02 5.1704413014e+02 1.0000000000e+01 0.0000e+00 -1.0000e+00
 -5000521  1    3    3    0    0 -1.9662640924e+02 +4.2520243245e+02 +9.8240700395e+02 1.0884312449e+03 1.0000000000e+01 0.0000e+00 1.0000e+00
       21  1    1    2  502  501 +1.3468797474e+01 -2.0396467944e+01 +6.3055200663e+00 2.5242503705e+01 0.0000000000e+00 0.0000e+00 -1.0000e+00
<mgrwt>
<rscale>  1 0.10116498E+04</rscale>
<asrwt>0</asrwt>
<pdfrwt beam="1">  1        2 0.22182040E+00 0.10116498E+04</pdfrwt>
<pdfrwt beam="2">  1       -2 0.29059271E-01 0.10116498E+04</pdfrwt>
<totfact> 0.14857571E+02</totfact>
</mgrwt>
</event>
<event>
 6      1 +3.0741590e+01 1.00081400e+03 7.81860800e-03 9.30765300e-02
        2 -1    0    0  502    0 +0.0000000000e+00 +0.0000000000e+00 +4.1671187624e+02 4.1671187624e+02 0.0000000000e+00 0.0000e+00 1.0000e+00
       -2 -1    0    0    0  501 -0.0000000000e+00 -0.0000000000e+00 -6.3299415078e+02 6.3299415078e+02 0.0000000000e+00 0.0000e+00 -1.0000e+00
  5000001  2    1    2    0    0 -1.4434302373e+01 -2.0375349700e+01 -2.1928647700e+02 1.0245558940e+03 1.0005022323e+03 0.0000e+00 0.0000e+00
  5000521  1    3    3    0    0 -1.7112913196e+02 -1.4820816364e+02 +3.5189729411e+02 4.1854813962e+02 1.0000000000e+01 0.0000e+00 1.0000e+00
 -5000521  1    3    3    0    0 +1.5669482958e+02 +1.2783281394e+02 -5.7118377112e+02 6.0600775434e+02 1.0000000000e+01 0.0000e+00 -1.0000e+00
       21  1    1    2  502  501 +1.4434302373e+01 +2.0375349700e+01 +3.0042024542e+00 2.5150133057e+01 0.0000000000e+00 0.0000e+00 -1.0000e+00
<mgrwt>
<rscale>  1 0.10008138E+04</rscale>
<asrwt>0</asrwt>
<pdfrwt beam="1">  1        2 0.64109520E-01 0.10008138E+04</pdfrwt>
<pdfrwt beam="2">  1       -2 0.97383715E-01 0.10008138E+04</pdfrwt>
<totfact> 0.66653471E+01</totfact>
</mgrwt>
</event>
<event>
 6      1 +3.0741590e+01 9.75696900e+02 7.81860800e-03 9.33560900e-02
        2 -1    0    0  502    0 +0.0000000000e+00 +0.0000000000e+00 +7.2072632230e+02 7.2072632230e+02 0.0000000000e+00 0.0000e+00 1.0000e+00
       -2 -1    0    0    0  501 -0.0000000000e+00 -0.0000000000e+00 -4.2184031747e+02 4.2184031747e+02 0.0000000000e+00 0.0000e+00 -1.0000e+00
  5000001  2    1    2    0    0 -1.7558071065e+01 +1.2056132076e+01 +3.8869204746e+02 1.0502695029e+03 9.7546444569e+02 0.0000e+00 0.0000e+00
  5000521  1    3    3    0    0 -3.9741730455e+02 +1.1384032899e+02 -9.7500589328e+01 4.2486056464e+02 1.0000000000e+01 0.0000e+00 -1.0000e+00
 -5000521  1    3    3    0    0 +3.7985923349e+02 -1.0178419692e+02 +4.8619263679e+02 6.2540893828e+02 1.0000000000e+01 0.0000e+00 1.0000e+00
       21  1    1    2  502  501 +1.7558071065e+01 -1.2056132076e+01 -8.9806042625e+01 9.2297136858e+01 0.0000000000e+00 0.0000e+00 1.0000e+00
<mgrwt>
<rscale>  1 0.97569694E+03</rscale>
<asrwt>0</asrwt>
<pdfrwt beam="1">  1        2 0.11088097E+00 0.97569694E+03</pdfrwt>
<pdfrwt beam="2">  1       -2 0.64898510E-01 0.97569694E+03</pdfrwt>
<totfact> 0.86409033E+01</totfact>
</mgrwt>
</event>
<event>
 6      1 +3.0741590e+01 1.00380000e+03 7.81860800e-03 9.30438700e-02
       -1 -1    0    0    0  501 -0.0000000000e+00 +0.0000000000e+00 +3.0434567352e+02 3.0434567352e+02 0.0000000000e+00 0.0000e+00 1.0000e+00
        1 -1    0    0  502    0 +0.0000000000e+00 -0.0000000000e+00 -9.9523772458e+02 9.9523772458e+02 0.0000000000e+00 0.0000e+00 -1.0000e+00
  5000001  2    1    2    0    0 -6.1432387588e+00 +5.1132924495e+01 -5.3933652216e+02 1.1395165568e+03 1.0024778220e+03 0.0000e+00 0.0000e+00
  5000521  1    3    3    0    0 +9.2535388940e+01 -4.0846680859e+02 -5.2158907301e+02 6.6900156428e+02 1.0000000000e+01 0.0000e+00 -1.0000e+00
 -5000521  1    3    3    0    0 -9.8678627699e+01 +4.5959973308e+02 -1.7747449145e+01 4.7051499250e+02 1.0000000000e+01 0.0000e+00 1.0000e+00
       21  1    1    2  502  501 +6.1432387588e+00 -5.1132924495e+01 -1.5155552890e+02 1.6006684132e+02 0.0000000000e+00 0.0000e+00 1.0000e+00
<mgrwt>
<rscale>  1 0.10037998E+04</rscale>
<asrwt>0</asrwt>
<pdfrwt beam="1">  1        1 0.15311350E+00 0.10037998E+04</pdfrwt>
<pdfrwt beam="2">  1       -1 0.46822412E-01 0.10037998E+04</pdfrwt>
<totfact> 0.69519017E+01</totfact>
</mgrwt>
</event>
<event>
 6      1 +3.0741590e+01 1.04098000e+03 7.81860800e-03 9.26470700e-02
        1 -1    0    0  502    0 +0.0000000000e+00 +0.0000000000e+00 +1.3321516861e+03 1.3321516861e+03 0.0000000000e+00 0.0000e+00 1.0000e+00
       -1 -1    0    0    0  501 -0.0000000000e+00 -0.0000000000e+00 -3.2630402093e+02 3.2630402093e+02 0.0000000000e+00 0.0000e+00 -1.0000e+00
  5000001  2    1    2    0    0 -2.6363063415e+02 +3.1201644589e+00 +8.9355455883e+02 1.3718888066e+03 1.0070393743e+03 0.0000e+00 0.0000e+00
  5000521  1    3    3    0    0 +3.4155598631e+02 -1.4658668224e+02 +5.3844325399e+02 6.5434645637e+02 1.0000000000e+01 0.0000e+00 -1.0000e+00
 -5000521  1    3    3    0    0 -6.0518662046e+02 +1.4970684670e+02 +3.5511130484e+02 7.1754235022e+02 1.0000000000e+01 0.0000e+00 1.0000e+00
       21  1    1    2  502  501 +2.6363063415e+02 -3.1201644589e+00 +1.1229310634e+02 2.8656690043e+02 0.0000000000e+00 0.0000e+00 -1.0000e+00
<mgrwt>
<rscale>  1 0.10409799E+04</rscale>
<asrwt>0</asrwt>
<pdfrwt beam="1">  1        1 0.20494641E+00 0.10409799E+04</pdfrwt>
<pdfrwt beam="2">  1       -1 0.50200619E-01 0.10409799E+04</pdfrwt>
<totfact> 0.34202384E+01</totfact>
</mgrwt>
</event>
<event>
 6      1 +3.0741590e+01 9.98939900e+02 7.81860800e-03 9.30970800e-02
        2 -1    0    0  502    0 +0.0000000000e+00 +0.0000000000e+00 +1.7949057970e+03 1.7949057970e+03 0.0000000000e+00 0.0000e+00 -1.0000e+00
       -2 -1    0    0    0  501 -0.0000000000e+00 -0.0000000000e+00 -1.5045813111e+02 1.5045813111e+02 0.0000000000e+00 0.0000e+00 1.0000e+00
  5000001  2    1    2    0    0 -9.7157347866e+00 +2.9429886906e+01 +1.5334675580e+03 1.8301376373e+03 9.9845906592e+02 0.0000e+00 0.0000e+00
  5000521  1    3    3    0    0 -5.0046349436e+02 +1.2611270386e+01 +6.6528913218e+02 8.3266582897e+02 1.0000000000e+01 0.0000e+00 1.0000e+00
 -5000521  1    3    3    0    0 +4.9074775957e+02 +1.6818616520e+01 +8.6817842583e+02 9.9747180836e+02 1.0000000000e+01 0.0000e+00 -1.0000e+00
       21  1    1    2  502  501 +9.7157347866e+00 -2.9429886906e+01 +1.1098010788e+02 1.1522629080e+02 0.0000000000e+00 0.0000e+00 -1.0000e+00
<mgrwt>
<rscale>  1 0.99893995E+03</rscale>
<asrwt>0</asrwt>
<pdfrwt beam="1">  1        2 0.27613934E+00 0.99893995E+03</pdfrwt>
<pdfrwt beam="2">  1       -2 0.23147406E-01 0.99893995E+03</pdfrwt>
<totfact> 0.14316874E+02</totfact>
</mgrwt>
</event>
<event>
 6      1 +3.0741590e+01 9.96394500e+02 7.81860800e-03 9.31250800e-02
       -2 -1    0    0    0  501 -0.0000000000e+00 +0.0000000000e+00 +4.4922133144e+02 4.4922133144e+02 0.0000000000e+00 0.0000e+00 1.0000e+00
        2 -1    0    0  502    0 +0.0000000000e+00 -0.0000000000e+00 -6.9086614077e+02 6.9086614077e+02 0.0000000000e+00 0.0000e+00 -1.0000e+00
  5000001  2    1    2    0    0 -3.5091871005e+01 +1.3749768720e+01 -3.2544918071e+02 1.0481980375e+03 9.9568140539e+02 0.0000e+00 0.0000e+00
  5000521  1    3    3    0    0 -4.2442201118e+02 +2.6823193253e+02 -4.3173436077e+01 5.0403011694e+02 1.0000000000e+01 0.0000e+00 1.0000e+00
 -5000521  1    3    3    0    0 +3.8933014018e+02 -2.5448216381e+02 -2.8227574464e+02 5.4416792055e+02 1.0000000000e+01 0.0000e+00 -1.0000e+00
       21  1    1    2  502  501 +3.5091871005e+01 -1.3749768720e+01 +8.3804371380e+01 9.1889434719e+01 0.0000000000e+00 0.0000e+00 -1.0000e+00
<mgrwt>
<rscale>  1 0.99639448E+03</rscale>
<asrwt>0</asrwt>
<pdfrwt beam="1">  1        2 0.10628710E+00 0.99639448E+03</pdfrwt>
<pdfrwt beam="2">  1       -2 0.69110974E-01 0.99639448E+03</pdfrwt>
<totfact> 0.79485851E+01</totfact>
</mgrwt>
</event>
<event>
 6      1 +3.0741590e+01 1.00579200e+03 7.81860800e-03 9.30221500e-02
        1 -1    0    0  502    0 +0.0000000000e+00 +0.0000000000e+00 +4.8597912345e+02 4.8597912345e+02 0.0000000000e+00 0.0000e+00 1.0000e+00
       -1 -1    0    0    0  501 -0.0000000000e+00 -0.0000000000e+00 -5.9686233903e+02 5.9686233903e+02 0.0000000000e+00 0.0000e+00 -1.0000e+00
  5000001  2    1    2    0    0 +1.9469914484e+01 +8.9682444068e+00 -1.6991021138e+02 1.0200426312e+03 1.0055635149e+03 0.0000e+00 0.0000e+00
  5000521  1    3    3    0    0 -3.5312880544e+01 -4.3924226560e+02 +1.5107424454e+02 4.6594441169e+02 1.0000000000e+01 0.0000e+00 1.0000e+00
 -5000521  1    3    3    0    0 +5.4782795029e+01 +4.4821051001e+02 -3.2098445592e+02 5.5409821950e+02 1.0000000000e+01 0.0000e+00 -1.0000e+00
       21  1    1    2  502  501 -1.9469914484e+01 -8.9682444068e+00 +5.9026995794e+01 6.2798831281e+01 0.0000000000e+00 0.0000e+00 -1.0000e+00
<mgrwt>
<rscale>  1 0.10057920E+04</rscale>
<asrwt>0</asrwt>
<pdfrwt beam="1">  1        1 0.74766019E-01 0.10057920E+04</pdfrwt>
<pdfrwt beam="2">  1       -1 0.91824976E-01 0.10057920E+04</pdfrwt>
<totfact> 0.53403110E+01</totfact>
</mgrwt>
</event>
<event>
 6      1 +3.0741590e+01 1.02253500e+03 7.81860800e-03 9.28416800e-02
        2 -1    0    0  502    0 +0.0000000000e+00 +0.0000000000e+00 +1.4409179897e+03 1.4409179897e+03 0.0000000000e+00 0.0000e+00 1.0000e+00
       -2 -1    0    0    0  501 -0.0000000000e+00 -0.0000000000e+00 -1.9881103225e+02 1.9881103225e+02 0.0000000000e+00 0.0000e+00 -1.0000e+00
  5000001  2    1    2    0    0 +3.9059017335e+01 +1.9912788045e+01 +1.2156761935e+03 1.5885361392e+03 1.0215949942e+03 0.0000e+00 0.0000e+00
  5000521  1    3    3    0    0 +2.3021854439e+02 +3.1192817822e+02 +7.4196118822e+01 3.9484785753e+02 1.0000000000e+01 0.0000e+00 -1.0000e+00
 -5000521  1    3    3    0    0 -1.9115952706e+02 -2.9201539018e+02 +1.1414800747e+03 1.1936882816e+03 1.0000000000e+01 0.0000e+00 1.0000e+00
       21  1    1    2  502  501 -3.9059017335e+01 -1.9912788045e+01 +2.6430763965e+01 5.1192882774e+01 0.0000000000e+00 0.0000e+00 -1.0000e+00
<mgrwt>
<rscale>  1 0.10225353E+04</rscale>
<asrwt>0</asrwt>
<pdfrwt beam="1">  1        2 0.22167968E+00 0.10225353E+04</pdfrwt>
<pdfrwt beam="2">  1       -2 0.30586314E-01 0.10225353E+04</pdfrwt>
<totfact> 0.13512561E+02</totfact>
</mgrwt>
</event>
<event>
 6      1 +3.0741590e+01 9.95622300e+02 7.81860800e-03 9.31335900e-02
        1 -1    0    0  502    0 +0.0000000000e+00 +0.0000000000e+00 +4.6524565857e+02 4.6524565857e+02 0.0000000000e+00 0.0000e+00 -1.0000e+00
       -1 -1    0    0    0  501 -0.0000000000e+00 -0.0000000000e+00 -6.7342035097e+02 6.7342035097e+02 0.0000000000e+00 0.0000e+00 1.0000e+00
  5000001  2    1    2    0    0 -2.0609337094e+01 -8.4323960590e+00 -3.0343750019e+02 1.0408352750e+03 9.9537324809e+02 0.0000e+00 0.0000e+00
  5000521  1    3    3    0    0 -1.1773356999e+02 -4.9002593466e+02 -1.4429530913e+02 5.2431645632e+02 1.0000000000e+01 0.0000e+00 1.0000e+00
 -5000521  1    3    3    0    0 +9.7124232892e+01 +4.8159353860e+02 -1.5914219107e+02 5.1651881864e+02 1.0000000000e+01 0.0000e+00 -1.0000e+00
       21  1    1    2  502  501 +2.0609337094e+01 +8.4323960590e+00 +9.5262807795e+01 9.7830734576e+01 0.0000000000e+00 0.0000e+00 -1.0000e+00
<mgrwt>
<rscale>  1 0.99562229E+03</rscale>
<asrwt>0</asrwt>
<pdfrwt beam="1">  1        1 0.71576255E-01 0.99562229E+03</pdfrwt>
<pdfrwt beam="2">  1       -1 0.10360313E+00 0.99562229E+03</pdfrwt>
<totfact> 0.43121731E+01</totfact>
</mgrwt>
</event>
<event>
 6      1 +3.0741590e+01 1.03779700e+03 7.81860800e-03 9.26803400e-02
       21 -1    0    0  501  502 +0.0000000000e+00 +0.0000000000e+00 +3.7179084118e+02 3.7179084118e+02 0.0000000000e+00 0.0000e+00 1.0000e+00
        1 -1    0    0  502    0 -0.0000000000e+00 -0.0000000000e+00 -1.3255174557e+03 1.3255174557e+03 0.0000000000e+00 0.0000e+00 1.0000e+00
  5000001  2    1    2    0    0 -2.3548435203e+02 +1.1299590634e+02 -4.5259599399e+02 1.1321951633e+03 1.0043912580e+03 0.0000e+00 0.0000e+00
  5000521  1    3    3    0    0 -2.6148611965e+02 +3.9062001082e+02 +1.2864676460e+02 4.8745150904e+02 1.0000000000e+01 0.0000e+00 1.0000e+00
 -5000521  1    3    3    0    0 +2.6001767621e+01 -2.7762410448e+02 -5.8124275859e+02 6.4474365427e+02 1.0000000000e+01 0.0000e+00 -1.0000e+00
        1  1    1    2  501    0 +2.3548435203e+02 -1.1299590634e+02 -5.0113062049e+02 5.6511313353e+02 0.0000000000e+00 0.0000e+00 1.0000e+00
<mgrwt>
<rscale>  1 0.10377971E+04</rscale>
<asrwt>0</asrwt>
<pdfrwt beam="1">  1       21 0.57198590E-01 0.10377971E+04</pdfrwt>
<pdfrwt beam="2">  1        1 0.20392577E+00 0.10377971E+04</pdfrwt>
<totfact> 0.23928199E+02</totfact>
</mgrwt>
</event>
<event>
 6      1 +3.0741590e+01 1.01772400e+03 7.81860800e-03 9.28931600e-02
        2 -1    0    0  502    0 +0.0000000000e+00 +0.0000000000e+00 +2.1816945143e+03 2.1816945143e+03 0.0000000000e+00 0.0000e+00 1.0000e+00
       -2 -1    0    0    0  501 -0.0000000000e+00 -0.0000000000e+00 -1.4191269028e+02 1.4191269028e+02 0.0000000000e+00 0.0000e+00 -1.0000e+00
  5000001  2    1    2    0    0 -8.6164204935e+01 -3.7690688153e+01 +1.8370273498e+03 2.1001027639e+03 1.0133692697e+03 0.0000e+00 0.0000e+00
  5000521  1    3    3    0    0 +3.9737918198e+02 +1.9613383618e+02 +1.1171592273e+03 1.2018832869e+03 1.0000000000e+01 0.0000e+00 1.0000e+00
 -5000521  1    3    3    0    0 -4.8354338692e+02 -2.3382452434e+02 +7.1986812242e+02 8.9821947701e+02 1.0000000000e+01 0.0000e+00 -1.0000e+00
       21  1    1    2  502  501 +8.6164204935e+01 +3.7690688153e+01 +2.0275447426e+02 2.2350444072e+02 0.0000000000e+00 0.0000e+00 -1.0000e+00
<mgrwt>
<rscale>  1 0.10177240E+04</rscale>
<asrwt>0</asrwt>
<pdfrwt beam="1">  1        2 0.33564529E+00 0.10177240E+04</pdfrwt>
<pdfrwt beam="2">  1       -2 0.21832723E-01 0.10177240E+04</pdfrwt>
<totfact> 0.97101684E+01</totfact>
</mgrwt>
</event>
<event>
 6      1 +3.0741590e+01 1.01720500e+03 7.81860800e-03 9.28987300e-02
       21 -1    0    0  501  502 +0.0000000000e+00 +0.0000000000e+00 +3.1663553645e+02 3.1663553645e+02 0.0000000000e+00 0.0000e+00 -1.0000e+00
        2 -1    0    0  502    0 -0.0000000000e+00 -0.0000000000e+00 -1.1306514826e+03 1.1306514826e+03 0.0000000000e+00 0.0000e+00 1.0000e+00
  5000001  2    1    2    0    0 -8.8670245873e+01 -1.5436169180e+02 -7.1745251641e+02 1.2447667969e+03 1.0015070250e+03 0.0000e+00 0.0000e+00
  5000521  1    3    3    0    0 -2.1854709057e+02 -2.9557478619e+02 -9.0464625051e+02 9.7653065676e+02 1.0000000000e+01 0.0000e+00 1.0000e+00
 -5000521  1    3    3    0    0 +1.2987684470e+02 +1.4121309440e+02 +1.8719373410e+02 2.6823614019e+02 1.0000000000e+01 0.0000e+00 -1.0000e+00
        2  1    1    2  501    0 +8.8670245873e+01 +1.5436169180e+02 -9.6563429727e+01 2.0252022210e+02 0.0000000000e+00 0.0000e+00 1.0000e+00
<mgrwt>
<rscale>  1 0.10172051E+04</rscale>
<asrwt>0</asrwt>
<pdfrwt beam="1">  1       21 0.48713159E-01 0.10172051E+04</pdfrwt>
<pdfrwt beam="2">  1        2 0.17394638E+00 0.10172051E+04</pdfrwt>
<totfact> 0.92881956E+02</totfact>
</mgrwt>
</event>
<event>
 6      1 +3.0741590e+01 9.99572100e+02 7.81860800e-03 9.30901400e-02
       -1 -1    0    0    0  501 -0.0000000000e+00 +0.0000000000e+00 +1.0825786125e+03 1.0825786125e+03 0.0000000000e+00 0.0000e+00 -1.0000e+00
        1 -1    0    0  502    0 +0.0000000000e+00 -0.0000000000e+00 -2.8014711497e+02 2.8014711497e+02 0.0000000000e+00 0.0000e+00 1.0000e+00
  5000001  2    1    2    0    0 +3.9436802617e+01 -9.0291132991e+00 +8.4139526619e+02 1.3065566830e+03 9.9875301530e+02 0.0000e+00 0.0000e+00
  5000521  1    3    3    0    0 +3.7097235933e+02 -2.4961970117e+02 +7.7023253323e+02 8.9066752599e+02 1.0000000000e+01 0.0000e+00 -1.0000e+00
 -5000521  1    3    3    0    0 -3.3153555672e+02 +2.4059058787e+02 +7.1162732962e+01 4.1588915699e+02 1.0000000000e+01 0.0000e+00 1.0000e+00
       21  1    1    2  502  501 -3.9436802617e+01 +9.0291132991e+00 -3.8963768676e+01 5.6169044473e+01 0.0000000000e+00 0.0000e+00 -1.0000e+00
<mgrwt>
<rscale>  1 0.99957209E+03</rscale>
<asrwt>0</asrwt>
<pdfrwt beam="1">  1        1 0.43099557E-01 0.99957209E+03</pdfrwt>
<pdfrwt beam="2">  1       -1 0.16655055E+00 0.99957209E+03</pdfrwt>
<totfact> 0.25102853E+01</totfact>
</mgrwt>
</event>
<event>
 6      1 +3.0741590e+01 1.02730900e+03 7.81860800e-03 9.27909000e-02
        1 -1    0    0  502    0 +0.0000000000e+00 +0.0000000000e+00 +9.9099190358e+02 9.9099190358e+02 0.0000000000e+00 0.0000e+00 1.0000e+00
       -1 -1    0    0    0  501 -0.0000000000e+00 -0.0000000000e+00 -4.5955340565e+02 4.5955340565e+02 0.0000000000e+00 0.0000e+00 -1.0000e+00
  5000001  2    1    2    0    0 -3.4384777072e+01 -8.9409404444e-01 +7.2280699745e+02 1.2561101918e+03 1.0267325582e+03 0.0000e+00 0.0000e+00
  5000521  1    3    3    0    0 -1.3627725751e+01 +4.9820180616e+02 +2.1235515735e+02 5.4183527702e+02 1.0000000000e+01 0.0000e+00 -1.0000e+00
 -5000521  1    3    3    0    0 -2.0757051321e+01 -4.9909590020e+02 +5.1045184010e+02 7.1427491475e+02 1.0000000000e+01 0.0000e+00 1.0000e+00
       21  1    1    2  502  501 +3.4384777072e+01 +8.9409404444e-01 -1.9136849952e+02 1.9443511747e+02 0.0000000000e+00 0.0000e+00 -1.0000e+00
<mgrwt>
<rscale>  1 0.10273086E+04</rscale>
<asrwt>0</asrwt>
<pdfrwt beam="1">  1        1 0.15246029E+00 0.10273086E+04</pdfrwt>
<pdfrwt beam="2">  1       -1 0.70700524E-01 0.10273086E+04</pdfrwt>
<totfact> 0.31109297E+01</totfact>
</mgrwt>
</event>
<event>
 6      1 +3.0741590e+01 9.98105900e+02 7.81860800e-03 9.31062500e-02
        2 -1    0    0  502    0 +0.0000000000e+00 +0.0000000000e+00 +1.2382052711e+03 1.2382052711e+03 0.0000000000e+00 0.0000e+00 -1.0000e+00
       -2 -1    0    0    0  501 -0.0000000000e+00 -0.0000000000e+00 -2.2518344119e+02 2.2518344119e+02 0.0000000000e+00 0.0000e+00 1.0000e+00
  5000001  2    1    2    0    0 -1.1900677427e+01 -3.4231767929e+01 +1.0193083778e+03 1.4266060976e+03 9.9744771723e+02 0.0000e+00 0.0000e+00
  5000521  1    3    3    0    0 +1.5736148839e+02 +1.1051408463e+02 +1.1514568242e+03 1.1674454244e+03 1.0000000000e+01 0.0000e+00 -1.0000e+00
 -5000521  1    3    3    0    0 -1.6926216581e+02 -1.4474585256e+02 -1.3214844646e+02 2.5916067316e+02 1.0000000000e+01 0.0000e+00 1.0000e+00
       21  1    1    2  502  501 +1.1900677427e+01 +3.4231767929e+01 -6.2865478940e+00 3.6782614686e+01 0.0000000000e+00 0.0000e+00 1.0000e+00
<mgrwt>
<rscale>  1 0.99810590E+03</rscale>
<asrwt>0</asrwt>
<pdfrwt beam="1">  1        2 0.19049311E+00 0.99810590E+03</pdfrwt>
<pdfrwt beam="2">  1       -2 0.34643607E-01 0.99810590E+03</pdfrwt>
<totfact> 0.14005760E+02</totfact>
</mgrwt>
</event>
<event>
 6      1 +3.0741590e+01 1.02076300e+03 7.81860800e-03 9.28606100e-02
        2 -1    0    0  502    0 +0.0000000000e+00 +0.0000000000e+00 +3.8591745522e+02 3.8591745522e+02 0.0000000000e+00 0.0000e+00 -1.0000e+00
       -2 -1    0    0    0  501 -0.0000000000e+00 -0.0000000000e+00 -1.0529560558e+03 1.0529560558e+03 0.0000000000e+00 0.0000e+00 1.0000e+00
  5000001  2    1    2    0    0 -9.0276361220e+01 +2.1001514688e+02 -6.4890324141e+02 1.2095591535e+03 9.9483754745e+02 0.0000e+00 0.0000e+00
  5000521  1    3    3    0    0 -2.9931383154e+02 +1.7765624330e+01 +1.6855458028e+02 3.4411485538e+02 1.0000000000e+01 0.0000e+00 -1.0000e+00
 -5000521  1    3    3    0    0 +2.0903747032e+02 +1.9224952255e+02 -8.1745782170e+02 8.6544429814e+02 1.0000000000e+01 0.0000e+00 1.0000e+00
       21  1    1    2  502  501 +9.0276361220e+01 -2.1001514688e+02 -1.8135359181e+01 2.2931435752e+02 0.0000000000e+00 0.0000e+00 1.0000e+00
<mgrwt>
<rscale>  1 0.10207634E+04</rscale>
<asrwt>0</asrwt>
<pdfrwt beam="1">  1        2 0.59371918E-01 0.10207634E+04</pdfrwt>
<pdfrwt beam="2">  1       -2 0.16199323E+00 0.10207634E+04</pdfrwt>
<totfact> 0.20050905E+01</totfact>
</mgrwt>
</event>
<event>
 6      1 +3.0741590e+01 9.97881300e+02 7.81860800e-03 9.31087200e-02
       -4 -1    0    0    0  501 -0.0000000000e+00 +0.0000000000e+00 +2.2608390117e+02 2.2608390117e+02 0.0000000000e+00 0.0000e+00 1.0000e+00
        4 -1    0    0  502    0 +0.0000000000e+00 -0.0000000000e+00 -1.2700256399e+03 1.2700256399e+03 0.0000000000e+00 0.0000e+00 -1.0000e+00
  5000001  2    1    2    0    0 +2.2647325700e+01 +2.1794667700e+01 -8.8405212656e+02 1.3331598649e+03 9.9738616086e+02 0.0000e+00 0.0000e+00
  5000521  1    3    3    0    0 +3.9242472623e+02 +4.8188918808e+01 -2.3612707414e+01 3.9620310146e+02 1.0000000000e+01 0.0000e+00 1.0000e+00
 -5000521  1    3    3    0    0 -3.6977740053e+02 -2.6394251108e+01 -8.6043941915e+02 9.3695676339e+02 1.0000000000e+01 0.0000e+00 -1.0000e+00
       21  1    1    2  502  501 -2.2647325700e+01 -2.1794667700e+01 -1.5988961222e+02 1.6294967627e+02 0.0000000000e+00 0.0000e+00 -1.0000e+00
<mgrwt>
<rscale>  1 0.99788129E+03</rscale>
<asrwt>0</asrwt>
<pdfrwt beam="1">  1        4 0.19538856E+00 0.99788129E+03</pdfrwt>
<pdfrwt beam="2">  1       -4 0.34782139E-01 0.99788129E+03</pdfrwt>
<totfact> 0.22601714E+00</totfact>
</mgrwt>
</event>
<event>
 6      1 +3.0741590e+01 1.01062600e+03 7.81860800e-03 9.29696700e-02
        2 -1    0    0  502    0 +0.0000000000e+00 +0.0000000000e+00 +1.3691867178e+03 1.3691867178e+03 0.0000000000e+00 0.0000e+00 -1.0000e+00
       -2 -1    0    0    0  501 -0.0000000000e+00 -0.0000000000e+00 -1.9594162551e+02 1.9594162551e+02 0.0000000000e+00 0.0000e+00 1.0000e+00
  5000001  2    1    2    0    0 -2.2432368262e+01 +1.3076803185e+00 +1.1619944067e+03 1.5399986975e+03 1.0103762002e+03 0.0000e+00 0.0000e+00
  5000521  1    3    3    0    0 -1.4945472750e+02 +9.8163848218e+01 +1.3098919857e+03 1.3220778612e+03 1.0000000000e+01 0.0000e+00 -1.0000e+00
 -5000521  1    3    3    0    0 +1.2702235924e+02 -9.6856167899e+01 -1.4789757907e+02 2.1792083632e+02 1.0000000000e+01 0.0000e+00 1.0000e+00
       21  1    1    2  502  501 +2.2432368262e+01 -1.3076803185e+00 +1.1250685664e+01 2.5129645871e+01 0.0000000000e+00 0.0000e+00 -1.0000e+00
<mgrwt>
<rscale>  1 0.10106260E+04</rscale>
<asrwt>0</asrwt>
<pdfrwt beam="1">  1        2 0.21064410E+00 0.10106260E+04</pdfrwt>
<pdfrwt beam="2">  1       -2 0.30144866E-01 0.10106260E+04</pdfrwt>
<totfact> 0.15267798E+02</totfact>
</mgrwt>
</event>
<event>
 6      1 +3.0741590e+01 1.00987000e+03 7.81860800e-03 9.29778600e-02
       -2 -1    0    0    0  501 -0.0000000000e+00 +0.0000000000e+00 +1.6154657724e+02 1.6154657724e+02 0.0000000000e+00 0.0000e+00 1.0000e+00
        2 -1    0    0  502    0 +0.0000000000e+00 -0.0000000000e+00 -1.8791579825e+03 1.8791579825e+03 0.0000000000e+00 0.0000e+00 -1.0000e+00
  5000001  2    1    2    0    0 -6.0374925904e-01 -8.2961910366e+01 -1.5043999448e+03 1.8119204476e+03 1.0064558965e+03 0.0000e+00 0.0000e+00
  5000521  1    3    3    0    0 -2.1334642853e+02 +2.0983158980e+02 -3.8386750572e+01 3.0186012864e+02 1.0000000000e+01 0.0000e+00 1.0000e+00
 -5000521  1    3    3    0    0 +2.1274267927e+02 -2.9279350017e+02 -1.4660131942e+03 1.5100603190e+03 1.0000000000e+01 0.0000e+00 -1.0000e+00
       21  1    1    2  502  501 +6.0374925904e-01 +8.2961910366e+01 -2.1321146053e+02 2.2878411218e+02 0.0000000000e+00 0.0000e+00 -1.0000e+00
<mgrwt>
<rscale>  1 0.10098696E+04</rscale>
<asrwt>0</asrwt>
<pdfrwt beam="1">  1        2 0.28910120E+00 0.10098696E+04</pdfrwt>
<pdfrwt beam="2">  1       -2 0.24853322E-01 0.10098696E+04</pdfrwt>
<totfact> 0.11310745E+02</totfact>
</mgrwt>
</event>
<event>
 6      1 +3.0741590e+01 9.97879700e+02 7.81860800e-03 9.31087300e-02
        2 -1    0    0  502    0 +0.0000000000e+00 +0.0000000000e+00 +2.1788453889e+03 2.1788453889e+03 0.0000000000e+00 0.0000e+00 1.0000e+00
       -2 -1    0    0    0  501 -0.0000000000e+00 -0.0000000000e+00 -1.2619747195e+02 1.2619747195e+02 0.0000000000e+00 0.0000e+00 -1.0000e+00
  5000001  2    1    2    0    0 +1.4589684909e+01 -2.8794597935e+01 +2.0388256038e+03 2.2699281329e+03 9.9735745753e+02 0.0000e+00 0.0000e+00
  5000521  1    3    3    0    0 -6.4686766307e+01 -8.5126329433e+01 +2.1321018216e+03 2.1348042176e+03 1.0000000000e+01 0.0000e+00 1.0000e+00
 -5000521  1    3    3    0    0 +7.9276451216e+01 +5.6331731497e+01 -9.3276217794e+01 1.3512391534e+02 1.0000000000e+01 0.0000e+00 -1.0000e+00
       21  1    1    2  502  501 -1.4589684909e+01 +2.8794597935e+01 +1.3822313124e+01 3.5114727909e+01 0.0000000000e+00 0.0000e+00 -1.0000e+00
<mgrwt>
<rscale>  1 0.99787970E+03</rscale>
<asrwt>0</asrwt>
<pdfrwt beam="1">  1        2 0.33520695E+00 0.99787970E+03</pdfrwt>
<pdfrwt beam="2">  1       -2 0.19414997E-01 0.99787970E+03</pdfrwt>
<totfact> 0.12008665E+02</totfact>
</mgrwt>
</event>
<event>
 6      1 +3.0741590e+01 9.51703400e+02 7.81860800e-03 9.36316200e-02
        2 -1    0    0  502    0 +0.0000000000e+00 +0.0000000000e+00 +1.1351722415e+03 1.1351722415e+03 0.0000000000e+00 0.0000e+00 -1.0000e+00
       -2 -1    0    0    0  501 -0.0000000000e+00 -0.0000000000e+00 -2.4323681367e+02 2.4323681367e+02 0.0000000000e+00 0.0000e+00 1.0000e+00
  5000001  2    1    2    0    0 -2.5039586304e+01 -1.1216171848e+00 +9.3141627751e+02 1.3316439356e+03 9.5137324451e+02 0.0000e+00 0.0000e+00
  5000521  1    3    3    0    0 -1.9815394969e+02 +4.2332915524e+02 +6.2362229196e+02 7.7940831692e+02 1.0000000000e+01 0.0000e+00 -1.0000e+00
 -5000521  1    3    3    0    0 +1.7311436339e+02 -4.2445077243e+02 +3.0779398556e+02 5.5223561871e+02 1.0000000000e+01 0.0000e+00 1.0000e+00
       21  1    1    2  502  501 +2.5039586304e+01 +1.1216171848e+00 -3.9480849723e+01 4.6765119504e+01 0.0000000000e+00 0.0000e+00 -1.0000e+00
<mgrwt>
<rscale>  1 0.95170336E+03</rscale>
<asrwt>0</asrwt>
<pdfrwt beam="1">  1        2 0.17464188E+00 0.95170336E+03</pdfrwt>
<pdfrwt beam="2">  1       -2 0.37421049E-01 0.95170336E+03</pdfrwt>
<totfact> 0.13959609E+02</totfact>
</mgrwt>
</event>
<event>
 6      1 +3.0741590e+01 1.00114300e+03 7.81860800e-03 9.30729200e-02
        1 -1    0    0  502    0 +0.0000000000e+00 +0.0000000000e+00 +1.0780278442e+03 1.0780278442e+03 0.0000000000e+00 0.0000e+00 1.0000e+00
       -1 -1    0    0    0  501 -0.0000000000e+00 -0.0000000000e+00 -2.4920557183e+02 2.4920557183e+02 0.0000000000e+00 0.0000e+00 -1.0000e+00
  5000001  2    1    2    0    0 -1.2908330598e+01 -2.9369454377e+01 +8.1962649471e+02 1.2938604902e+03 1.0006288960e+03 0.0000e+00 0.0000e+00
  5000521  1    3    3    0    0 -5.4497554668e+01 -4.8847466092e+02 +6.2040840322e+02 7.9157063148e+02 1.0000000000e+01 0.0000e+00 1.0000e+00
 -5000521  1    3    3    0    0 +4.1589224071e+01 +4.5910520655e+02 +1.9921809149e+02 5.0228985876e+02 1.0000000000e+01 0.0000e+00 -1.0000e+00
       21  1    1    2  502  501 +1.2908330598e+01 +2.9369454377e+01 +9.1957776496e+00 3.3372925791e+01 0.0000000000e+00 0.0000e+00 -1.0000e+00
<mgrwt>
<rscale>  1 0.10011430E+04</rscale>
<asrwt>0</asrwt>
<pdfrwt beam="1">  1        1 0.16585044E+00 0.10011430E+04</pdfrwt>
<pdfrwt beam="2">  1       -1 0.38339319E-01 0.10011430E+04</pdfrwt>
<totfact> 0.86853694E+01</totfact>
</mgrwt>
</event>
<event>
 6      1 +3.0741590e+01 1.00835300e+03 7.81860800e-03 9.29943100e-02
       -2 -1    0    0    0  501 -0.0000000000e+00 +0.0000000000e+00 +3.0177647025e+02 3.0177647025e+02 0.0000000000e+00 0.0000e+00 1.0000e+00
        2 -1    0    0  502    0 +0.0000000000e+00 -0.0000000000e+00 -1.1206210055e+03 1.1206210055e+03 0.0000000000e+00 0.0000e+00 -1.0000e+00
  5000001  2    1    2    0    0 -2.8849929563e+01 -3.6214463245e+01 -5.4803358417e+02 1.1476569127e+03 1.0072893199e+03 0.0000e+00 0.0000e+00
  5000521  1    3    3    0    0 -4.1940584667e+01 +1.4206321016e+02 +2.7115196143e+02 3.0913484842e+02 1.0000000000e+01 0.0000e+00 1.0000e+00
 -5000521  1    3    3    0    0 +1.3090655103e+01 -1.7827767340e+02 -8.1918554560e+02 8.3852206423e+02 1.0000000000e+01 0.0000e+00 -1.0000e+00
       21  1    1    2  502  501 +2.8849929563e+01 +3.6214463245e+01 -2.7081095113e+02 2.7474056314e+02 0.0000000000e+00 0.0000e+00 -1.0000e+00
<mgrwt>
<rscale>  1 0.10083529E+04</rscale>
<asrwt>0</asrwt>
<pdfrwt beam="1">  1        2 0.17240323E+00 0.10083529E+04</pdfrwt>
<pdfrwt beam="2">  1       -2 0.46427149E-01 0.10083529E+04</pdfrwt>
<totfact> 0.92792150E+01</totfact>
</mgrwt>
</event>
<event>
 6      1 +3.0741590e+01 1.01656400e+03 7.81860800e-03 9.29056200e-02
        2 -1    0    0  502    0 +0.0000000000e+00 +0.0000000000e+00 +8.4390643901e+02 8.4390643901e+02 0.0000000000e+00 0.0000e+00 -1.0000e+00
       -2 -1    0    0    0  501 -0.0000000000e+00 -0.0000000000e+00 -4.3154651061e+02 4.3154651061e+02 0.0000000000e+00 0.0000e+00 1.0000e+00
  5000001  2    1    2    0    0 -5.4460857864e+01 +1.7116662661e+02 +4.0912116135e+02 1.0958019304e+03 1.0005687117e+03 0.0000e+00 0.0000e+00
  5000521  1    3    3    0    0 -1.9124949483e+02 +1.1711494071e+02 -2.9821768483e+02 3.7326407028e+02 1.0000000000e+01 0.0000e+00 1.0000e+00
 -5000521  1    3    3    0    0 +1.3678863697e+02 +5.4051685901e+01 +7.0733884618e+02 7.2253786010e+02 1.0000000000e+01 0.0000e+00 -1.0000e+00
       21  1    1    2  502  501 +5.4460857864e+01 -1.7116662661e+02 +3.2387670527e+00 1.7965101924e+02 0.0000000000e+00 0.0000e+00 -1.0000e+00
<mgrwt>
<rscale>  1 0.10165637E+04</rscale>
<asrwt>0</asrwt>
<pdfrwt beam="1">  1        2 0.12983176E+00 0.10165637E+04</pdfrwt>
<pdfrwt beam="2">  1       -2 0.66391771E-01 0.10165637E+04</pdfrwt>
<totfact> 0.66600695E+01</totfact>
</mgrwt>
</event>
<event>
 6      1 +3.0741590e+01 1.00562400e+03 7.81860800e-03 9.30239800e-02
       -2 -1    0    0    0  501 -0.0000000000e+00 +0.0000000000e+00 +2.1776378564e+02 2.1776378564e+02 0.0000000000e+00 0.0000e+00 -1.0000e+00
        2 -1    0    0  502    0 +0.0000000000e+00 -0.0000000000e+00 -1.2942292561e+03 1.2942292561e+03 0.0000000000e+00 0.0000e+00 1.0000e+00
  5000001  2    1    2    0    0 +3.7694756790e+01 +2.5740664714e+00 -9.6280990428e+02 1.3922219758e+03 1.0049137265e+03 0.0000e+00 0.0000e+00
  5000521  1    3    3    0    0 -1.7031290956e+02 +1.1074649525e+02 +1.5140457247e+02 2.5356383405e+02 1.0000000000e+01 0.0000e+00 -1.0000e+00
 -5000521  1    3    3    0    0 +2.0800766635e+02 -1.0817242878e+02 -1.1142144768e+03 1.1386581418e+03 1.0000000000e+01 0.0000e+00 1.0000e+00
       21  1    1    2  502  501 -3.7694756790e+01 -2.5740664714e+00 -1.1365556618e+02 1.1977106592e+02 0.0000000000e+00 0.0000e+00 -1.0000e+00
<mgrwt>
<rscale>  1 0.10056237E+04</rscale>
<asrwt>0</asrwt>
<pdfrwt beam="1">  1        2 0.19911219E+00 0.10056237E+04</pdfrwt>
<pdfrwt beam="2">  1       -2 0.33502121E-01 0.10056237E+04</pdfrwt>
<totfact> 0.13833658E+02</totfact>
</mgrwt>
</event>
<event>
 6      1 +3.0741590e+01 1.00282000e+03 7.81860800e-03 9.30545700e-02
        2 -1    0    0  502    0 +0.0000000000e+00 +0.0000000000e+00 +6.4935099274e+02 6.4935099274e+02 0.0000000000e+00 0.0000e+00 -1.0000e+00
       -2 -1    0    0    0  501 -0.0000000000e+00 -0.0000000000e+00 -4.6471739162e+02 4.6471739162e+02 0.0000000000e+00 0.0000e+00 1.0000e+00
  5000001  2    1    2    0    0 +1.3395299314e+01 -1.7245673470e+01 +7.8695489741e+01 1.0059030908e+03 1.0025822662e+03 0.0000e+00 0.0000e+00
  5000521  1    3    3    0    0 -2.3703883735e+02 -1.3345614801e+02 -3.8179544425e+02 4.6889840596e+02 1.0000000000e+01 0.0000e+00 1.0000e+00
 -5000521  1    3    3    0    0 +2.5043413666e+02 +1.1621047454e+02 +4.6049093400e+02 5.3700468480e+02 1.0000000000e+01 0.0000e+00 -1.0000e+00
       21  1    1    2  502  501 -1.3395299314e+01 +1.7245673470e+01 +1.0593811138e+02 1.0816529361e+02 0.0000000000e+00 0.0000e+00 -1.0000e+00
<mgrwt>
<rscale>  1 0.10028200E+04</rscale>
<asrwt>0</asrwt>
<pdfrwt beam="1">  1        2 0.99900152E-01 0.10028200E+04</pdfrwt>
<pdfrwt beam="2">  1       -2 0.71494984E-01 0.10028200E+04</pdfrwt>
<totfact> 0.79735969E+01</totfact>
</mgrwt>
</event>
<event>
 6      1 +3.0741590e+01 9.99997300e+02 7.81860800e-03 9.30854800e-02
       -2 -1    0    0    0  501 -0.0000000000e+00 +0.0000000000e+00 +5.3943549670e+02 5.3943549670e+02 0.0000000000e+00 0.0000e+00 1.0000e+00
        2 -1    0    0  502    0 +0.0000000000e+00 -0.0000000000e+00 -6.2474825269e+02 6.2474825269e+02 0.0000000000e+00 0.0000e+00 -1.0000e+00
  5000001  2    1    2    0    0 +2.5076977635e+00 +2.5817104584e+01 +7.4039268730e+01 1.0027344409e+03 9.9966080955e+02 0.0000e+00 0.0000e+00
  5000521  1    3    3    0    0 +2.1668010246e+02 -3.9107853908e+02 +2.3737109053e+02 5.0629805959e+02 1.0000000000e+01 0.0000e+00 1.0000e+00
 -5000521  1    3    3    0    0 -2.1417240470e+02 +4.1689564366e+02 -1.6333182180e+02 4.9643638127e+02 1.0000000000e+01 0.0000e+00 -1.0000e+00
       21  1    1    2  502  501 -2.5076977635e+00 -2.5817104584e+01 -1.5935202473e+02 1.6144930852e+02 0.0000000000e+00 0.0000e+00 1.0000e+00
<mgrwt>
<rscale>  1 0.99999727E+03</rscale>
<asrwt>0</asrwt>
<pdfrwt beam="1">  1        2 0.96115116E-01 0.99999727E+03</pdfrwt>
<pdfrwt beam="2">  1       -2 0.82990077E-01 0.99999727E+03</pdfrwt>
<totfact> 0.59910280E+01</totfact>
</mgrwt>
</event>
<event>
 6      1 +3.0741590e+01 9.99114100e+02 7.81860800e-03 9.30951700e-02
        2 -1    0    0  502    0 +0.0000000000e+00 +0.0000000000e+00 +1.0229414025e+03 1.0229414025e+03 0.0000000000e+00 0.0000e+00 1.0000e+00
       -2 -1    0    0    0  501 -0.0000000000e+00 -0.0000000000e+00 -3.5100295386e+02 3.5100295386e+02 0.0000000000e+00 0.0000e+00 -1.0000e+00
  5000001  2    1    2    0    0 -6.5406991698e+01 +9.5322941578e+01 +7.3677675834e+02 1.2413979714e+03 9.9240334235e+02 0.0000e+00 0.0000e+00
  5000521  1    3    3    0    0 -2.5372731863e+02 +4.9545081170e+02 +4.0498273792e+02 6.8844758482e+02 1.0000000000e+01 0.0000e+00 -1.0000e+00
 -5000521  1    3    3    0    0 +1.8832032693e+02 -4.0012787012e+02 +3.3179402042e+02 5.5295038653e+02 1.0000000000e+01 0.0000e+00 1.0000e+00
       21  1    1    2  502  501 +6.5406991698e+01 -9.5322941578e+01 -6.4838309750e+01 1.3254638496e+02 0.0000000000e+00 0.0000e+00 -1.0000e+00
<mgrwt>
<rscale>  1 0.99911407E+03</rscale>
<asrwt>0</asrwt>
<pdfrwt beam="1">  1        2 0.15737560E+00 0.99911407E+03</pdfrwt>
<pdfrwt beam="2">  1       -2 0.54000455E-01 0.99911407E+03</pdfrwt>
<totfact> 0.78447870E+01</totfact>
</mgrwt>
</event>
<event>
 6      1 +3.0741590e+01 1.00035100e+03 7.81860800e-03 9.30816000e-02
        1 -1    0    0  502    0 +0.0000000000e+00 +0.0000000000e+00 +5.5501172344e+02 5.5501172344e+02 0.0000000000e+00 0.0000e+00 1.0000e+00
       -1 -1    0    0    0  501 -0.0000000000e+00 -0.0000000000e+00 -4.9848870485e+02 4.9848870485e+02 0.0000000000e+00 0.0000e+00 -1.0000e+00
  5000001  2    1    2    0    0 -3.7071682243e+01 -9.9722859918e-02 +1.8680100250e+01 1.0005249053e+03 9.9966335352e+02 0.0000e+00 0.0000e+00
  5000521  1    3    3    0    0 +6.4180577424e+01 -7.4142976398e+01 -4.7804860942e+02 4.8810531696e+02 1.0000000000e+01 0.0000e+00 -1.0000e+00
 -5000521  1    3    3    0    0 -1.0125225967e+02 +7.4043253538e+01 +4.9672870967e+02 5.1241958832e+02 1.0000000000e+01 0.0000e+00 1.0000e+00
       21  1    1    2  502  501 +3.7071682243e+01 +9.9722859918e-02 +3.7842918345e+01 5.2975523007e+01 0.0000000000e+00 0.0000e+00 1.0000e+00
<mgrwt>
<rscale>  1 0.10003505E+04</rscale>
<asrwt>0</asrwt>
<pdfrwt beam="1">  1        1 0.85386419E-01 0.10003505E+04</pdfrwt>
<pdfrwt beam="2">  1       -1 0.76690570E-01 0.10003505E+04</pdfrwt>
<totfact> 0.65532965E+01</totfact>
</mgrwt>
</event>
<event>
 6      1 +3.0741590e+01 9.85844600e+02 7.81860800e-03 9.32420800e-02
       21 -1    0    0  501  502 +0.0000000000e+00 +0.0000000000e+00 +1.2446831326e+03 1.2446831326e+03 0.0000000000e+00 0.0000e+00 -1.0000e+00
        2 -1    0    0  502    0 -0.0000000000e+00 -0.0000000000e+00 -2.6679951273e+02 2.6679951273e+02 0.0000000000e+00 0.0000e+00 1.0000e+00
  5000001  2    1    2    0    0 +2.8876266514e+01 +9.5156653119e+00 +6.4697524300e+02 1.1791804628e+03 9.8537567054e+02 0.0000e+00 0.0000e+00
  5000521  1    3    3    0    0 -2.1398286474e+02 -1.0755044491e+02 -1.8613066891e+02 3.0348046149e+02 1.0000000000e+01 0.0000e+00 1.0000e+00
 -5000521  1    3    3    0    0 +2.4285913125e+02 +1.1706611022e+02 +8.3310591191e+02 8.7570000128e+02 1.0000000000e+01 0.0000e+00 -1.0000e+00
        2  1    1    2  501    0 -2.8876266514e+01 -9.5156653119e+00 +3.3090837689e+02 3.3230218258e+02 0.0000000000e+00 0.0000e+00 1.0000e+00
<mgrwt>
<rscale>  1 0.98584461E+03</rscale>
<asrwt>0</asrwt>
<pdfrwt beam="1">  1       21 0.19148971E+00 0.98584461E+03</pdfrwt>
<pdfrwt beam="2">  1        2 0.41046080E-01 0.98584461E+03</pdfrwt>
<totfact> 0.18223534E+02</totfact>
</mgrwt>
</event>
<event>
 6      1 +3.0741590e+01 1.00135500e+03 7.81860800e-03 9.30705900e-02
       -1 -1    0    0    0  501 -0.0000000000e+00 +0.0000000000e+00 +9.3115985979e+02 9.3115985979e+02 0.0000000000e+00 0.0000e+00 1.0000e+00
        1 -1    0    0  502    0 +0.0000000000e+00 -0.0000000000e+00 -5.8690131810e+02 5.8690131810e+02 0.0000000000e+00 0.0000e+00 -1.0000e+00
  5000001  2    1    2    0    0 +4.5147581727e+01 +5.1252102284e+01 +6.5719648730e+02 1.1977562608e+03 9.9902340072e+02 0.0000e+00 0.0000e+00
  5000521  1    3    3    0    0 +1.1413225017e+02 -4.6384154340e+02 +3.6684284815e+02 6.0236934115e+02 1.0000000000e+01 0.0000e+00 1.0000e+00
 -5000521  1    3    3    0    0 -6.8984668446e+01 +5.1509364568e+02 +2.9035363915e+02 5.9538691963e+02 1.0000000000e+01 0.0000e+00 -1.0000e+00
       21  1    1    2  502  501 -4.5147581727e+01 -5.1252102284e+01 -3.1293794561e+02 3.2030491712e+02 0.0000000000e+00 0.0000e+00 -1.0000e+00
<mgrwt>
<rscale>  1 0.10013555E+04</rscale>
<asrwt>0</asrwt>
<pdfrwt beam="1">  1        1 0.90292510E-01 0.10013555E+04</pdfrwt>
<pdfrwt beam="2">  1       -1 0.14325536E+00 0.10013555E+04</pdfrwt>
<totfact> 0.13984484E+01</totfact>
</mgrwt>
</event>
<event>
 6      1 +3.0741590e+01 9.94804700e+02 7.81860800e-03 9.31426100e-02
       21 -1    0    0  501  502 +0.0000000000e+00 +0.0000000000e+00 +8.9962974365e+01 8.9962974365e+01 0.0000000000e+00 0.0000e+00 1.0000e+00
        1 -1    0    0  502    0 -0.0000000000e+00 -0.0000000000e+00 -3.2023118832e+03 3.2023118832e+03 0.0000000000e+00 0.0000e+00 -1.0000e+00
  5000001  2    1    2    0    0 -3.9913524779e+01 +3.6281516215e+00 -3.0904241761e+03 3.2465917441e+03 9.9399703830e+02 0.0000e+00 0.0000e+00
  5000521  1    3    3    0    0 -1.3785241935e+02 +7.3863290119e+01 -2.9409040911e+00 1.5674094572e+02 1.0000000000e+01 0.0000e+00 1.0000e+00
 -5000521  1    3    3    0    0 +9.7938894574e+01 -7.0235138498e+01 -3.0874832720e+03 3.0898507984e+03 1.0000000000e+01 0.0000e+00 -1.0000e+00
        1  1    1    2  501    0 +3.9913524779e+01 -3.6281516215e+00 -2.1924732749e+01 4.5683113408e+01 0.0000000000e+00 0.0000e+00 -1.0000e+00
<mgrwt>
<rscale>  1 0.99480469E+03</rscale>
<asrwt>0</asrwt>
<pdfrwt beam="1">  1       21 0.13840457E-01 0.99480469E+03</pdfrwt>
<pdfrwt beam="2">  1        1 0.49266337E+00 0.99480469E+03</pdfrwt>
<totfact> 0.21075916E+02</totfact>
</mgrwt>
</event>
<event>
 6      1 +3.0741590e+01 9.61415800e+02 7.81860800e-03 9.35190600e-02
       -1 -1    0    0    0  501 -0.0000000000e+00 +0.0000000000e+00 +1.2940467774e+02 1.2940467774e+02 0.0000000000e+00 0.0000e+00 -1.0000e+00
        1 -1    0    0  502    0 +0.0000000000e+00 -0.0000000000e+00 -1.8826841669e+03 1.8826841669e+03 0.0000000000e+00 0.0000e+00 1.0000e+00
  5000001  2    1    2    0    0 -5.6726454208e-01 -2.4025919179e+01 -1.6889633802e+03 1.9434293336e+03 9.6111534612e+02 0.0000e+00 0.0000e+00
  5000521  1    3    3    0    0 +3.0146116061e+02 +3.1955459263e+02 -4.7995674828e+02 6.5073224082e+02 1.0000000000e+01 0.0000e+00 -1.0000e+00
 -5000521  1    3    3    0    0 -3.0202842516e+02 -3.4358051181e+02 -1.2090066319e+03 1.2926970928e+03 1.0000000000e+01 0.0000e+00 1.0000e+00
       21  1    1    2  502  501 +5.6726454208e-01 +2.4025919179e+01 -6.4316108957e+01 6.8659511015e+01 0.0000000000e+00 0.0000e+00 -1.0000e+00
<mgrwt>
<rscale>  1 0.96141577E+03</rscale>
<asrwt>0</asrwt>
<pdfrwt beam="1">  1        1 0.28964374E+00 0.96141577E+03</pdfrwt>
<pdfrwt beam="2">  1       -1 0.19908410E-01 0.96141577E+03</pdfrwt>
<totfact> 0.74456650E+01</totfact>
</mgrwt>
</event>
<event>
 6      1 +3.0741590e+01 1.01011800e+03 7.81860800e-03 9.29751600e-02
        1 -1    0    0  502    0 +0.0000000000e+00 +0.0000000000e+00 +1.3445585308e+03 1.3445585308e+03 0.0000000000e+00 0.0000e+00 1.0000e+00
       -1 -1    0    0    0  501 -0.0000000000e+00 -0.0000000000e+00 -2.2708345655e+02 2.2708345655e+02 0.0000000000e+00 0.0000e+00 -1.0000e+00
  5000001  2    1    2    0    0 -6.8965585136e+01 +2.0589983693e+01 +1.1075259549e+03 1.4989839916e+03 1.0075510246e+03 0.0000e+00 0.0000e+00
  5000521  1    3    3    0    0 -3.5676535379e+02 -3.5383842851e+02 +7.6574211111e+02 9.1593893458e+02 1.0000000000e+01 0.0000e+00 1.0000e+00
 -5000521  1    3    3    0    0 +2.8779976866e+02 +3.7442841220e+02 +3.4178384378e+02 5.8304505706e+02 1.0000000000e+01 0.0000e+00 -1.0000e+00
       21  1    1    2  502  501 +6.8965585136e+01 -2.0589983693e+01 +9.9491193575e+00 7.2657995690e+01 0.0000000000e+00 0.0000e+00 -1.0000e+00
<mgrwt>
<rscale>  1 0.10101184E+04</rscale>
<asrwt>0</asrwt>
<pdfrwt beam="1">  1        1 0.20685515E+00 0.10101184E+04</pdfrwt>
<pdfrwt beam="2">  1       -1 0.34935917E-01 0.10101184E+04</pdfrwt>
<totfact> 0.65596314E+01</totfact>
</mgrwt>
</event>
<event>
 6      1 +3.0741590e+01 9.98591100e+02 7.81860800e-03 9.31009100e-02
        2 -1    0    0  502    0 +0.0000000000e+00 +0.0000000000e+00 +9.9001484050e+02 9.9001484050e+02 0.0000000000e+00 0.0000e+00 -1.0000e+00
       -2 -1    0    0    0  501 -0.0000000000e+00 -0.0000000000e+00 -3.0168086086e+02 3.0168086086e+02 0.0000000000e+00 0.0000e+00 1.0000e+00
  5000001  2    1    2    0    0 +3.0971034421e+01 -5.7019761269e+01 +5.5270629060e+02 1.1413450173e+03 9.9648068059e+02 0.0000e+00 0.0000e+00
  5000521  1    3    3    0    0 -2.8420740462e+02 -8.1591103195e+01 -1.7789232328e+02 3.4521969185e+02 1.0000000000e+01 0.0000e+00 1.0000e+00
 -5000521  1    3    3    0    0 +3.1517843904e+02 +2.4571341926e+01 +7.3059861388e+02 7.9612532549e+02 1.0000000000e+01 0.0000e+00 -1.0000e+00
       21  1    1    2  502  501 -3.0971034421e+01 +5.7019761269e+01 +1.3562768905e+02 1.5035068402e+02 0.0000000000e+00 0.0000e+00 -1.0000e+00
<mgrwt>
<rscale>  1 0.99859111E+03</rscale>
<asrwt>0</asrwt>
<pdfrwt beam="1">  1        2 0.15230997E+00 0.99859111E+03</pdfrwt>
<pdfrwt beam="2">  1       -2 0.46412441E-01 0.99859111E+03</pdfrwt>
<totfact> 0.11225756E+02</totfact>
</mgrwt>
</event>
<event>
 6      1 +3.0741590e+01 9.83452200e+02 7.81860800e-03 9.32688300e-02
       -2 -1    0    0    0  501 -0.0000000000e+00 +0.0000000000e+00 +5.5718000476e+02 5.5718000476e+02 0.0000000000e+00 0.0000e+00 -1.0000e+00
        2 -1    0    0  502    0 +0.0000000000e+00 -0.0000000000e+00 -6.1184789193e+02 6.1184789193e+02 0.0000000000e+00 0.0000e+00 1.0000e+00
  5000001  2    1    2    0    0 +1.7954445141e+01 +1.4797966933e+01 -2.1528009092e+02 1.0067391974e+03 9.8317696886e+02 0.0000e+00 0.0000e+00
  5000521  1    3    3    0    0 +2.0943154592e+02 +4.4503369545e+02 -7.7293617872e+00 4.9201250547e+02 1.0000000000e+01 0.0000e+00 -1.0000e+00
 -5000521  1    3    3    0    0 -1.9147710077e+02 -4.3023572851e+02 -2.0755072913e+02 5.1472669192e+02 1.0000000000e+01 0.0000e+00 1.0000e+00
       21  1    1    2  502  501 -1.7954445141e+01 -1.4797966933e+01 +1.6061220375e+02 1.6228869929e+02 0.0000000000e+00 0.0000e+00 1.0000e+00
<mgrwt>
<rscale>  1 0.98345223E+03</rscale>
<asrwt>0</asrwt>
<pdfrwt beam="1">  1        2 0.94130444E-01 0.98345223E+03</pdfrwt>
<pdfrwt beam="2">  1       -2 0.85720001E-01 0.98345223E+03</pdfrwt>
<totfact> 0.57136923E+01</totfact>
</mgrwt>
</event>
<event>
 6      1 +3.0741590e+01 9.89666600e+02 7.81860800e-03 9.31995100e-02
        2 -1    0    0  502    0 -0.0000000000e+00 +0.0000000000e+00 +1.1227778815e+03 1.1227778815e+03 0.0000000000e+00 0.0000e+00 1.0000e+00
       21 -1    0    0  501  502 +0.0000000000e+00 -0.0000000000e+00 -3.0377721124e+02 3.0377721124e+02 0.0000000000e+00 0.0000e+00 -1.0000e+00
  5000001  2    1    2    0    0 -1.8597364525e+01 +1.7946262280e+01 +9.0235564635e+02 1.3392854970e+03 9.8932906542e+02 0.0000e+00 0.0000e+00
  5000521  1    3    3    0    0 +4.0908425925e+02 -2.2154297478e+02 +6.1432366898e+02 7.7066516147e+02 1.0000000000e+01 0.0000e+00 -1.0000e+00
 -5000521  1    3    3    0    0 -4.2768162378e+02 +2.3948923706e+02 +2.8803197737e+02 5.6862033553e+02 1.0000000000e+01 0.0000e+00 1.0000e+00
        2  1    1    2  501    0 +1.8597364525e+01 -1.7946262280e+01 -8.3354976108e+01 8.7269595731e+01 0.0000000000e+00 0.0000e+00 1.0000e+00
<mgrwt>
<rscale>  1 0.98966658E+03</rscale>
<asrwt>0</asrwt>
<pdfrwt beam="1">  1       21 0.46734956E-01 0.98966658E+03</pdfrwt>
<pdfrwt beam="2">  1        2 0.17273506E+00 0.98966658E+03</pdfrwt>
<totfact> 0.10297377E+03</totfact>
</mgrwt>
</event>
<event>
 6      1 +3.0741590e+01 1.00522600e+03 7.81860800e-03 9.30283100e-02
       -1 -1    0    0    0  501 -0.0000000000e+00 +0.0000000000e+00 +4.9178480549e+02 4.9178480549e+02 0.0000000000e+00 0.0000e+00 1.0000e+00
        1 -1    0    0  502    0 +0.0000000000e+00 -0.0000000000e+00 -7.9662648330e+02 7.9662648330e+02 0.0000000000e+00 0.0000e+00 -1.0000e+00
  5000001  2    1    2    0    0 +2.7080858686e+01 -8.6283054635e+00 -4.7789288401e+02 1.1130415635e+03 1.0048244091e+03 0.0000e+00 0.0000e+00
  5000521  1    3    3    0    0 -4.7328452418e+02 -1.1372055211e+01 -3.7032566989e+02 6.0113947321e+02 1.0000000000e+01 0.0000e+00 -1.0000e+00
 -5000521  1    3    3    0    0 +5.0036538287e+02 +2.7437497472e+00 -1.0756721412e+02 5.1190209034e+02 1.0000000000e+01 0.0000e+00 1.0000e+00
       21  1    1    2  502  501 -2.7080858686e+01 +8.6283054635e+00 +1.7305120620e+02 1.7536972524e+02 0.0000000000e+00 0.0000e+00 -1.0000e+00
<mgrwt>
<rscale>  1 0.10052263E+04</rscale>
<asrwt>0</asrwt>
<pdfrwt beam="1">  1        1 0.12255792E+00 0.10052263E+04</pdfrwt>
<pdfrwt beam="2">  1       -1 0.75659201E-01 0.10052263E+04</pdfrwt>
<totfact> 0.39164716E+01</totfact>
</mgrwt>
</event>
<event>
 6      1 +3.0741590e+01 9.82035400e+02 7.81860800e-03 9.32847000e-02
        2 -1    0    0  502    0 +0.0000000000e+00 +0.0000000000e+00 +2.4182927267e+03 2.4182927267e+03 0.0000000000e+00 0.0000e+00 -1.0000e+00
       -2 -1    0    0    0  501 -0.0000000000e+00 -0.0000000000e+00 -1.6471433078e+02 1.6471433078e+02 0.0000000000e+00 0.0000e+00 1.0000e+00
  5000001  2    1    2    0    0 -8.0479778357e+00 +3.0084916068e+01 +1.3015430890e+03 1.6304625190e+03 9.8154151277e+02 0.0000e+00 0.0000e+00
  5000521  1    3    3    0    0 +2.8698789488e+02 +4.1021333103e+02 +6.6628232152e+02 8.3346815220e+02 1.0000000000e+01 0.0000e+00 -1.0000e+00
 -5000521  1    3    3    0    0 -2.9503587271e+02 -3.8012841496e+02 +6.3526076749e+02 7.9699436683e+02 1.0000000000e+01 0.0000e+00 1.0000e+00
       21  1    1    2  502  501 +8.0479778357e+00 -3.0084916068e+01 +9.5203530691e+02 9.5254453844e+02 0.0000000000e+00 0.0000e+00 -1.0000e+00
<mgrwt>
<rscale>  1 0.98203544E+03</rscale>
<asrwt>0</asrwt>
<pdfrwt beam="1">  1        2 0.37204501E+00 0.98203544E+03</pdfrwt>
<pdfrwt beam="2">  1       -2 0.25340668E-01 0.98203544E+03</pdfrwt>
<totfact> 0.54909463E+01</totfact>
</mgrwt>
</event>
<event>
 6      1 +3.0741590e+01 9.85071800e+02 7.81860800e-03 9.32507100e-02
        2 -1    0    0  502    0 +0.0000000000e+00 +0.0000000000e+00 +3.0677681624e+02 3.0677681624e+02 0.0000000000e+00 0.0000e+00 -1.0000e+00
       -2 -1    0    0    0  501 -0.0000000000e+00 -0.0000000000e+00 -1.0896889813e+03 1.0896889813e+03 0.0000000000e+00 0.0000e+00 1.0000e+00
  5000001  2    1    2    0    0 -2.7309756405e+01 -4.3789847153e+01 -8.5733126817e+02 1.3059032423e+03 9.8371896459e+02 0.0000e+00 0.0000e+00
  5000521  1    3    3    0    0 +3.1316821688e+02 -3.5453984756e+02 -2.2660115867e+02 5.2461502140e+02 1.0000000000e+01 0.0000e+00 1.0000e+00
 -5000521  1    3    3    0    0 -3.4047797328e+02 +3.1075000041e+02 -6.3073010950e+02 7.8128822087e+02 1.0000000000e+01 0.0000e+00 -1.0000e+00
       21  1    1    2  502  501 +2.7309756405e+01 +4.3789847153e+01 +7.4419103108e+01 9.0562555265e+01 0.0000000000e+00 0.0000e+00 1.0000e+00
<mgrwt>
<rscale>  1 0.98507176E+03</rscale>
<asrwt>0</asrwt>
<pdfrwt beam="1">  1        2 0.47196433E-01 0.98507176E+03</pdfrwt>
<pdfrwt beam="2">  1       -2 0.16764446E+00 0.98507176E+03</pdfrwt>
<totfact> 0.23668681E+01</totfact>
</mgrwt>
</event>
<event>
 6      1 +3.0741590e+01 1.02307500e+03 7.81860800e-03 9.28359300e-02
        2 -1    0    0  502    0 +0.0000000000e+00 +0.0000000000e+00 +9.2775414399e+02 9.2775414399e+02 0.0000000000e+00 0.0000e+00 1.0000e+00
       -2 -1    0    0    0  501 -0.0000000000e+00 -0.0000000000e+00 -4.1679770352e+02 4.1679770352e+02 0.0000000000e+00 0.0000e+00 -1.0000e+00
  5000001  2    1    2    0    0 +6.0928388580e+01 +4.9363651059e+01 +6.3037556267e+02 1.2016883976e+03 1.0200650059e+03 0.0000e+00 0.0000e+00
  5000521  1    3    3    0    0 -1.4040715922e+02 -4.3649452661e+02 +4.5797962459e+02 6.4814117186e+02 1.0000000000e+01 0.0000e+00 1.0000e+00
 -5000521  1    3    3    0    0 +2.0133554780e+02 +4.8585817767e+02 +1.7239593808e+02 5.5354722570e+02 1.0000000000e+01 0.0000e+00 -1.0000e+00
       21  1    1    2  502  501 -6.0928388580e+01 -4.9363651059e+01 -1.1941912220e+02 1.4286344994e+02 0.0000000000e+00 0.0000e+00 -1.0000e+00
<mgrwt>
<rscale>  1 0.10230746E+04</rscale>
<asrwt>0</asrwt>
<pdfrwt beam="1">  1        2 0.14273141E+00 0.10230746E+04</pdfrwt>
<pdfrwt beam="2">  1       -2 0.64122724E-01 0.10230746E+04</pdfrwt>
<totfact> 0.62867283E+01</totfact>
</mgrwt>
</event>
<event>
 6      1 +3.0741590e+01 1.00262300e+03 7.81860800e-03 9.30567200e-02
       -2 -1    0    0    0  501 -0.0000000000e+00 +0.0000000000e+00 +2.5757893925e+02 2.5757893925e+02 0.0000000000e+00 0.0000e+00 -1.0000e+00
        2 -1    0    0  502    0 +0.0000000000e+00 -0.0000000000e+00 -1.0875509308e+03 1.0875509308e+03 0.0000000000e+00 0.0000e+00 1.0000e+00
  5000001  2    1    2    0    0 +2.0160534207e+01 +9.2669376077e+00 -8.5060428692e+02 1.3148311096e+03 1.0023776088e+03 0.0000e+00 0.0000e+00
  5000521  1    3    3    0    0 -2.6844211469e+02 -3.9492256250e+02 -5.7234434749e+02 7.4545492917e+02 1.0000000000e+01 0.0000e+00 1.0000e+00
 -5000521  1    3    3    0    0 +2.8860264889e+02 +4.0418950011e+02 -2.7825993943e+02 5.6937618043e+02 1.0000000000e+01 0.0000e+00 -1.0000e+00
       21  1    1    2  502  501 -2.0160534207e+01 -9.2669376077e+00 +2.0632295380e+01 3.0298760450e+01 0.0000000000e+00 0.0000e+00 -1.0000e+00
<mgrwt>
<rscale>  1 0.10026232E+04</rscale>
<asrwt>0</asrwt>
<pdfrwt beam="1">  1        2 0.16731553E+00 0.10026232E+04</pdfrwt>
<pdfrwt beam="2">  1       -2 0.39627530E-01 0.10026232E+04</pdfrwt>
<totfact> 0.13321650E+02</totfact>
</mgrwt>
</event>
<event>
 6      1 +3.0741590e+01 1.09643900e+03 7.81860800e-03 9.20867000e-02
        2 -1    0    0  502    0 +0.0000000000e+00 +0.0000000000e+00 +3.5047637164e+03 3.5047637164e+03 0.0000000000e+00 0.0000e+00 1.0000e+00
       -2 -1    0    0    0  501 -0.0000000000e+00 -0.0000000000e+00 -1.9793146323e+02 1.9793146323e+02 0.0000000000e+00 0.0000e+00 -1.0000e+00
  5000001  2    1    2    0    0 +4.4919108837e+02 -3.9779167848e+01 +2.8805011957e+03 3.0821202956e+03 9.9941150810e+02 0.0000e+00 0.0000e+00
  5000521  1    3    3    0    0 +6.6770082294e+02 -1.5084078179e+01 +2.7416867542e+03 2.8218784836e+03 1.0000000000e+01 0.0000e+00 1.0000e+00
 -5000521  1    3    3    0    0 -2.1850973457e+02 -2.4695089669e+01 +1.3881444151e+02 2.6024181203e+02 1.0000000000e+01 0.0000e+00 -1.0000e+00
       21  1    1    2  502  501 -4.4919108837e+02 +3.9779167848e+01 +4.2633105754e+02 6.2057488403e+02 0.0000000000e+00 0.0000e+00 -1.0000e+00
<mgrwt>
<rscale>  1 0.10964390E+04</rscale>
<asrwt>0</asrwt>
<pdfrwt beam="1">  1        2 0.53919437E+00 0.10964390E+04</pdfrwt>
<pdfrwt beam="2">  1       -2 0.30450997E-01 0.10964390E+04</pdfrwt>
<totfact> 0.82289259E+00</totfact>
</mgrwt>
</event>
<event>
 6      1 +3.0741590e+01 9.83712200e+02 7.81860800e-03 9.32659200e-02
       -1 -1    0    0    0  501 -0.0000000000e+00 +0.0000000000e+00 +3.8211642450e+02 3.8211642450e+02 0.0000000000e+00 0.0000e+00 -1.0000e+00
        1 -1    0    0  502    0 +0.0000000000e+00 -0.0000000000e+00 -6.9068475652e+02 6.9068475652e+02 0.0000000000e+00 0.0000e+00 1.0000e+00
  5000001  2    1    2    0    0 -7.9614156948e+00 +3.0734365141e+01 -3.2632345664e+02 1.0364249554e+03 9.8319972767e+02 0.0000e+00 0.0000e+00
  5000521  1    3    3    0    0 -4.6104233027e+02 -1.5034409194e+02 -2.3869803210e+02 5.4059238508e+02 1.0000000000e+01 0.0000e+00 -1.0000e+00
 -5000521  1    3    3    0    0 +4.5308091457e+02 +1.8107845708e+02 -8.7625424537e+01 4.9583257032e+02 1.0000000000e+01 0.0000e+00 1.0000e+00
       21  1    1    2  502  501 +7.9614156948e+00 -3.0734365141e+01 +1.7755124615e+01 3.6376225623e+01 0.0000000000e+00 0.0000e+00 -1.0000e+00
<mgrwt>
<rscale>  1 0.98371220E+03</rscale>
<asrwt>0</asrwt>
<pdfrwt beam="1">  1        1 0.10625919E+00 0.98371220E+03</pdfrwt>
<pdfrwt beam="2">  1       -1 0.58787142E-01 0.98371220E+03</pdfrwt>
<totfact> 0.81834832E+01</totfact>
</mgrwt>
</event>
<event>
 6      1 +3.0741590e+01 9.98194900e+02 7.81860800e-03 9.31052700e-02
       -2 -1    0    0    0  501 -0.0000000000e+00 +0.0000000000e+00 +1.3323463981e+02 1.3323463981e+02 0.0000000000e+00 0.0000e+00 1.0000e+00
        2 -1    0    0  502    0 +0.0000000000e+00 -0.0000000000e+00 -2.0972377660e+03 2.0972377660e+03 0.0000000000e+00 0.0000e+00 -1.0000e+00
  5000001  2    1    2    0    0 -2.3429257338e+01 +6.4912362100e+00 -1.7466216551e+03 2.0117356457e+03 9.9789881046e+02 0.0000e+00 0.0000e+00
  5000521  1    3    3    0    0 -2.3146705536e+02 -4.4051916204e+02 -9.9883488922e+02 1.1159772694e+03 1.0000000000e+01 0.0000e+00 1.0000e+00
 -5000521  1    3    3    0    0 +2.0803779802e+02 +4.4701039825e+02 -7.4778676585e+02 8.9575837631e+02 1.0000000000e+01 0.0000e+00 -1.0000e+00
       21  1    1    2  502  501 +2.3429257338e+01 -6.4912362100e+00 -2.1738147113e+02 2.1873676015e+02 0.0000000000e+00 0.0000e+00 -1.0000e+00
<mgrwt>
<rscale>  1 0.99819492E+03</rscale>
<asrwt>0</asrwt>
<pdfrwt beam="1">  1        2 0.32265199E+00 0.99819492E+03</pdfrwt>
<pdfrwt beam="2">  1       -2 0.20497635E-01 0.99819492E+03</pdfrwt>
<totfact> 0.12113435E+02</totfact>
</mgrwt>
</event>
<event>
 6      1 +3.0741590e+01 1.00158700e+03 7.81860800e-03 9.30680500e-02
       -2 -1    0    0    0  501 -0.0000000000e+00 +0.0000000000e+00 +3.5050680400e+02 3.5050680400e+02 0.0000000000e+00 0.0000e+00 1.0000e+00
        2 -1    0    0  502    0 +0.0000000000e+00 -0.0000000000e+00 -8.1343620114e+02 8.1343620114e+02 0.0000000000e+00 0.0000e+00 -1.0000e+00
  5000001  2    1    2    0    0 +9.3141183143e+00 -4.8241237627e+01 -4.8163198832e+02 1.1113715611e+03 1.0003816296e+03 0.0000e+00 0.0000e+00
  5000521  1    3    3    0    0 -1.3397245172e+02 -5.0106545950e+02 -1.8224593909e+02 5.4984433691e+02 1.0000000000e+01 0.0000e+00 -1.0000e+00
 -5000521  1    3    3    0    0 +1.4328657003e+02 +4.5282422187e+02 -2.9938604923e+02 5.6152722422e+02 1.0000000000e+01 0.0000e+00 1.0000e+00
       21  1    1    2  502  501 -9.3141183143e+00 +4.8241237627e+01 +1.8702591182e+01 5.2571444004e+01 0.0000000000e+00 0.0000e+00 1.0000e+00
<mgrwt>
<rscale>  1 0.10015874E+04</rscale>
<asrwt>0</asrwt>
<pdfrwt beam="1">  1        2 0.12514403E+00 0.10015874E+04</pdfrwt>
<pdfrwt beam="2">  1       -2 0.53924124E-01 0.10015874E+04</pdfrwt>
<totfact> 0.10889997E+02</totfact>
</mgrwt>
</event>
<event>
 6      1 +3.0741590e+01 9.94005100e+02 7.81860800e-03 9.31514400e-02
       -2 -1    0    0    0  501 -0.0000000000e+00 +0.0000000000e+00 +3.9291645674e+02 3.9291645674e+02 0.0000000000e+00 0.0000e+00 1.0000e+00
        2 -1    0    0  502    0 +0.0000000000e+00 -0.0000000000e+00 -9.5424150435e+02 9.5424150435e+02 0.0000000000e+00 0.0000e+00 -1.0000e+00
  5000001  2    1    2    0    0 -1.5610520934e+01 -1.4135645247e+01 -2.3663265991e+02 1.0217833286e+03 9.9378199323e+02 0.0000e+00 0.0000e+00
  5000521  1    3    3    0    0 +3.3798491261e+02 +1.7374583986e+02 +1.9975547369e+02 4.2944576758e+02 1.0000000000e+01 0.0000e+00 1.0000e+00
 -5000521  1    3    3    0    0 -3.5359543355e+02 -1.8788148511e+02 -4.3638813360e+02 5.9233756104e+02 1.0000000000e+01 0.0000e+00 -1.0000e+00
       21  1    1    2  502  501 +1.5610520934e+01 +1.4135645247e+01 -3.2469238770e+02 3.2537463248e+02 0.0000000000e+00 0.0000e+00 1.0000e+00
<mgrwt>
<rscale>  1 0.99400511E+03</rscale>
<asrwt>0</asrwt>
<pdfrwt beam="1">  1        2 0.14680638E+00 0.99400511E+03</pdfrwt>
<pdfrwt beam="2">  1       -2 0.60448687E-01 0.99400511E+03</pdfrwt>
<totfact> 0.68605299E+01</totfact>
</mgrwt>
</event>
<event>
 6      1 +3.0741590e+01 1.13015300e+03 7.81860800e-03 9.17629100e-02
        2 -1    0    0  502    0 +0.0000000000e+00 +0.0000000000e+00 +2.4233114084e+03 2.4233114084e+03 0.0000000000e+00 0.0000e+00 1.0000e+00
       -2 -1    0    0    0  501 -0.0000000000e+00 -0.0000000000e+00 -3.9557430796e+02 3.9557430796e+02 0.0000000000e+00 0.0000e+00 -1.0000e+00
  5000001  2    1    2    0    0 +4.6733951714e+02 -2.3258020355e+02 +5.6041198975e+02 1.2614703075e+03 1.0023701727e+03 0.0000e+00 0.0000e+00
  5000521  1    3    3    0    0 +5.2883048319e+02 +5.3531936743e+01 -9.8271749993e+01 5.4063359593e+02 1.0000000000e+01 0.0000e+00 -1.0000e+00
 -5000521  1    3    3    0    0 -6.1490966050e+01 -2.8611214029e+02 +6.5868373974e+02 7.2083671156e+02 1.0000000000e+01 0.0000e+00 1.0000e+00
       21  1    1    2  502  501 -4.6733951714e+02 +2.3258020355e+02 +1.4673251107e+03 1.5574154089e+03 0.0000000000e+00 0.0000e+00 1.0000e+00
<mgrwt>
<rscale>  1 0.11301530E+04</rscale>
<asrwt>0</asrwt>
<pdfrwt beam="1">  1        2 0.37281713E+00 0.11301530E+04</pdfrwt>
<pdfrwt beam="2">  1       -2 0.60857587E-01 0.11301530E+04</pdfrwt>
<totfact> 0.96440429E+00</totfact>
</mgrwt>
</event>
<event>
 6      1 +3.0741590e+01 1.00561000e+03 7.81860800e-03 9.30241300e-02
       -2 -1    0    0    0  501 -0.0000000000e+00 +0.0000000000e+00 +1.1378833619e+03 1.1378833619e+03 0.0000000000e+00 0.0000e+00 1.0000e+00
        2 -1    0    0  502    0 +0.0000000000e+00 -0.0000000000e+00 -2.9763167913e+02 2.9763167913e+02 0.0000000000e+00 0.0000e+00 -1.0000e+00
  5000001  2    1    2    0    0 -7.3070232578e+00 -4.7138082935e+01 +5.5957729879e+02 1.1508160750e+03 1.0044777218e+03 0.0000e+00 0.0000e+00
  5000521  1    3    3    0    0 +2.2783417619e+02 +2.4161465691e+02 -1.3818973276e+02 3.5983670813e+02 1.0000000000e+01 0.0000e+00 -1.0000e+00
 -5000521  1    3    3    0    0 -2.3514119945e+02 -2.8875273985e+02 +6.9776703155e+02 7.9097936684e+02 1.0000000000e+01 0.0000e+00 1.0000e+00
       21  1    1    2  502  501 +7.3070232578e+00 +4.7138082935e+01 +2.8067438398e+02 2.8469896606e+02 0.0000000000e+00 0.0000e+00 -1.0000e+00
<mgrwt>
<rscale>  1 0.10056097E+04</rscale>
<asrwt>0</asrwt>
<pdfrwt beam="1">  1        2 0.45789490E-01 0.10056097E+04</pdfrwt>
<pdfrwt beam="2">  1       -2 0.17505898E+00 0.10056097E+04</pdfrwt>
<totfact> 0.21667654E+01</totfact>
</mgrwt>
</event>
<event>
 6      1 +3.0741590e+01 9.39917300e+02 7.81860800e-03 9.37701400e-02
        2 -1    0    0  502    0 +0.0000000000e+00 +0.0000000000e+00 +4.1735566565e+02 4.1735566565e+02 0.0000000000e+00 0.0000e+00 -1.0000e+00
       -2 -1    0    0    0  501 -0.0000000000e+00 -0.0000000000e+00 -5.9137396461e+02 5.9137396461e+02 0.0000000000e+00 0.0000e+00 1.0000e+00
  5000001  2    1    2    0    0 +3.8474511880e+01 +2.0611612332e+01 -1.9557478787e+02 9.6004894783e+02 9.3890327401e+02 0.0000e+00 0.0000e+00
  5000521  1    3    3    0    0 -3.5865089291e+02 +4.0942947808e+00 +1.9015937532e+02 4.0608843158e+02 1.0000000000e+01 0.0000e+00 -1.0000e+00
 -5000521  1    3    3    0    0 +3.9712540479e+02 +1.6517317551e+01 -3.8573416320e+02 5.5396051625e+02 1.0000000000e+01 0.0000e+00 1.0000e+00
       21  1    1    2  502  501 -3.8474511880e+01 -2.0611612332e+01 +2.1556488914e+01 4.8680682428e+01 0.0000000000e+00 0.0000e+00 -1.0000e+00
<mgrwt>
<rscale>  1 0.93991728E+03</rscale>
<asrwt>0</asrwt>
<pdfrwt beam="1">  1        2 0.64208564E-01 0.93991728E+03</pdfrwt>
<pdfrwt beam="2">  1       -2 0.90980610E-01 0.93991728E+03</pdfrwt>
<totfact> 0.78227388E+01</totfact>
</mgrwt>
</event>
<event>
 6      1 +3.0741590e+01 1.00578400e+03 7.81860800e-03 9.30222400e-02
       -2 -1    0    0    0  501 -0.0000000000e+00 +0.0000000000e+00 +2.8081351364e+02 2.8081351364e+02 0.0000000000e+00 0.0000e+00 1.0000e+00
       21 -1    0    0  501  502 +0.0000000000e+00 -0.0000000000e+00 -1.1366142293e+03 1.1366142293e+03 0.0000000000e+00 0.0000e+00 -1.0000e+00
  5000001  2    1    2    0    0 +4.1711199414e+01 +1.0263907937e+02 -6.9655625699e+02 1.2234344379e+03 9.9966324331e+02 0.0000e+00 0.0000e+00
  5000521  1    3    3    0    0 +1.9053191479e+01 -2.3581605130e+02 +1.7085628526e+02 2.9200017872e+02 1.0000000000e+01 0.0000e+00 1.0000e+00
 -5000521  1    3    3    0    0 +2.2658007936e+01 +3.3845513067e+02 -8.6741254225e+02 9.3143425922e+02 1.0000000000e+01 0.0000e+00 -1.0000e+00
       -2  1    1    2    0  502 -4.1711199414e+01 -1.0263907937e+02 -1.5924445866e+02 1.9399330500e+02 0.0000000000e+00 0.0000e+00 1.0000e+00
<mgrwt>
<rscale>  1 0.10057839E+04</rscale>
<asrwt>0</asrwt>
<pdfrwt beam="1">  1       21 0.17486373E+00 0.10057839E+04</pdfrwt>
<pdfrwt beam="2">  1       -2 0.43202079E-01 0.10057839E+04</pdfrwt>
<totfact> 0.63892271E+01</totfact>
</mgrwt>
</event>
<event>
 5      1 +3.0741590e+01 6.10782200e+02 7.81860800e-03 9.88328600e-02
        2 -1    0    0  502    0 +0.0000000000e+00 +0.0000000000e+00 +7.1335833323e+02 7.1335833323e+02 0.0000000000e+00 0.0000e+00 1.0000e+00
       -2 -1    0    0    0  501 -0.0000000000e+00 -0.0000000000e+00 -1.6599809490e+02 1.6599809490e+02 0.0000000000e+00 0.0000e+00 -1.0000e+00
  5000521  1    1    2    0    0 -6.2448831387e+01 +2.5704663601e+02 +3.3234403390e+02 4.2488279148e+02 1.0000000000e+01 0.0000e+00 1.0000e+00
 -5000521  1    1    2    0    0 +4.1231655373e+01 -2.9911263985e+02 +8.1526531324e+01 3.1291371979e+02 1.0000000000e+01 0.0000e+00 -1.0000e+00
       21  1    1    2  502  501 +2.1217176014e+01 +4.2066003837e+01 +1.3348967310e+02 1.4155991686e+02 0.0000000000e+00 0.0000e+00 -1.0000e+00
<mgrwt>
<rscale>  1 0.61078216E+03</rscale>
<asrwt>0</asrwt>
<pdfrwt beam="1">  1        2 0.10974743E+00 0.61078216E+03</pdfrwt>
<pdfrwt beam="2">  1       -2 0.25538169E-01 0.61078216E+03</pdfrwt>
<totfact> 0.55613945E+02</totfact>
</mgrwt>
</event>
<event>
 6      1 +3.0741590e+01 9.98833900e+02 7.81860800e-03 9.30982500e-02
        1 -1    0    0  502    0 +0.0000000000e+00 +0.0000000000e+00 +7.7962489354e+02 7.7962489354e+02 0.0000000000e+00 0.0000e+00 -1.0000e+00
       -1 -1    0    0    0  501 -0.0000000000e+00 -0.0000000000e+00 -3.7745384297e+02 3.7745384297e+02 0.0000000000e+00 0.0000e+00 1.0000e+00
  5000001  2    1    2    0    0 +6.3779747245e+00 +2.2300561031e+01 +4.5634826861e+02 1.0981451761e+03 9.9856451572e+02 0.0000e+00 0.0000e+00
  5000521  1    3    3    0    0 -4.7924016356e+01 +4.7271789432e+02 +4.3433703703e+02 6.4382263139e+02 1.0000000000e+01 0.0000e+00 -1.0000e+00
 -5000521  1    3    3    0    0 +5.4301991080e+01 -4.5041733328e+02 +2.2011231573e+01 4.5432254476e+02 1.0000000000e+01 0.0000e+00 1.0000e+00
       21  1    1    2  502  501 -6.3779747245e+00 -2.2300561031e+01 -5.4177218038e+01 5.8933560373e+01 0.0000000000e+00 0.0000e+00 1.0000e+00
<mgrwt>
<rscale>  1 0.99883386E+03</rscale>
<asrwt>0</asrwt>
<pdfrwt beam="1">  1        1 0.11994229E+00 0.99883386E+03</pdfrwt>
<pdfrwt beam="2">  1       -1 0.58069822E-01 0.99883386E+03</pdfrwt>
<totfact> 0.69407995E+01</totfact>
</mgrwt>
</event>
<event>
 6      1 +3.0741590e+01 1.01944300e+03 7.81860800e-03 9.28747300e-02
        2 -1    0    0  502    0 +0.0000000000e+00 +0.0000000000e+00 +2.7679433636e+03 2.7679433636e+03 0.0000000000e+00 0.0000e+00 1.0000e+00
       -2 -1    0    0    0  501 -0.0000000000e+00 -0.0000000000e+00 -1.1911316124e+02 1.1911316124e+02 0.0000000000e+00 0.0000e+00 -1.0000e+00
  5000001  2    1    2    0    0 +9.3533927914e+01 +8.3743749847e+01 +2.2826056963e+03 2.4999105573e+03 1.0116829635e+03 0.0000e+00 0.0000e+00
  5000521  1    3    3    0    0 +2.4538887991e+02 -1.3314294616e+00 +2.3103503436e+03 2.3233674237e+03 1.0000000000e+01 0.0000e+00 1.0000e+00
 -5000521  1    3    3    0    0 -1.5185495199e+02 +8.5075179309e+01 -2.7744647360e+01 1.7654313364e+02 1.0000000000e+01 0.0000e+00 -1.0000e+00
       21  1    1    2  502  501 -9.3533927914e+01 -8.3743749847e+01 +3.6622450612e+02 3.8714596755e+02 0.0000000000e+00 0.0000e+00 1.0000e+00
<mgrwt>
<rscale>  1 0.10194430E+04</rscale>
<asrwt>0</asrwt>
<pdfrwt beam="1">  1        2 0.42583739E+00 0.10194430E+04</pdfrwt>
<pdfrwt beam="2">  1       -2 0.18325104E-01 0.10194430E+04</pdfrwt>
<totfact> 0.61051968E+01</totfact>
</mgrwt>
</event>
<event>
 6      1 +3.0741590e+01 1.00873000e+03 7.81860800e-03 9.29902100e-02
        2 -1    0    0  502    0 +0.0000000000e+00 +0.0000000000e+00 +3.7967636433e+03 3.7967636433e+03 0.0000000000e+00 0.0000e+00 -1.0000e+00
       -2 -1    0    0    0  501 -0.0000000000e+00 -0.0000000000e+00 -7.6801337826e+01 7.6801337826e+01 0.0000000000e+00 0.0000e+00 1.0000e+00
  5000001  2    1    2    0    0 +1.9929491488e+01 -5.0629295819e+01 +3.6374401424e+03 3.7747195582e+03 1.0072618546e+03 0.0000e+00 0.0000e+00
  5000521  1    3    3    0    0 -4.5352301392e+02 +1.4780087874e+02 +2.1108011633e+03 2.1640493929e+03 1.0000000000e+01 0.0000e+00 1.0000e+00
 -5000521  1    3    3    0    0 +4.7345250541e+02 -1.9843017456e+02 +1.5266389790e+03 1.6106701653e+03 1.0000000000e+01 0.0000e+00 -1.0000e+00
       21  1    1    2  502  501 -1.9929491488e+01 +5.0629295819e+01 +8.2522163144e+01 9.8845422939e+01 0.0000000000e+00 0.0000e+00 1.0000e+00
<mgrwt>
<rscale>  1 0.10087304E+04</rscale>
<asrwt>0</asrwt>
<pdfrwt beam="1">  1        2 0.58411734E+00 0.10087304E+04</pdfrwt>
<pdfrwt beam="2">  1       -2 0.11815593E-01 0.10087304E+04</pdfrwt>
<totfact> 0.27052187E+01</totfact>
</mgrwt>
</event>
<event>
 6      1 +3.0741590e+01 1.16545000e+03 7.81860800e-03 9.14364800e-02
        1 -1    0    0  502    0 -0.0000000000e+00 +0.0000000000e+00 +1.3171658245e+03 1.3171658245e+03 0.0000000000e+00 0.0000e+00 1.0000e+00
       21 -1    0    0  501  502 +0.0000000000e+00 -0.0000000000e+00 -6.1911801085e+02 6.1911801085e+02 0.0000000000e+00 0.0000e+00 1.0000e+00
  5000001  2    1    2    0    0 +4.1996406204e+02 +4.7873641813e+02 +3.9097994764e+02 1.2292838030e+03 9.7607119480e+02 0.0000e+00 0.0000e+00
  5000521  1    3    3    0    0 -9.4512106258e+01 +2.9032670593e+02 -2.4369136209e+02 3.9077821634e+02 1.0000000000e+01 0.0000e+00 -1.0000e+00
 -5000521  1    3    3    0    0 +5.1447616830e+02 +1.8840971220e+02 +6.3467130973e+02 8.3850558662e+02 1.0000000000e+01 0.0000e+00 1.0000e+00
        1  1    1    2  501    0 -4.1996406204e+02 -4.7873641813e+02 +3.0706786597e+02 7.0700003236e+02 0.0000000000e+00 0.0000e+00 1.0000e+00
<mgrwt>
<rscale>  1 0.11654498E+04</rscale>
<asrwt>0</asrwt>
<pdfrwt beam="1">  1       21 0.95248925E-01 0.11654498E+04</pdfrwt>
<pdfrwt beam="2">  1        1 0.20264090E+00 0.11654498E+04</pdfrwt>
<totfact> 0.72897606E+01</totfact>
</mgrwt>
</event>
<event>
 6      1 +3.0741590e+01 9.96145800e+02 7.81860800e-03 9.31278200e-02
        1 -1    0    0  502    0 +0.0000000000e+00 +0.0000000000e+00 +1.2411736364e+03 1.2411736364e+03 0.0000000000e+00 0.0000e+00 1.0000e+00
       -1 -1    0    0    0  501 -0.0000000000e+00 -0.0000000000e+00 -2.3328481447e+02 2.3328481447e+02 0.0000000000e+00 0.0000e+00 -1.0000e+00
  5000001  2    1    2    0    0 -1.9531392410e+01 -5.6177293725e+01 +8.6353379595e+02 1.3183311402e+03 9.9436865136e+02 0.0000e+00 0.0000e+00
  5000521  1    3    3    0    0 +4.6785130654e+02 -1.3412031935e+02 +3.1237807131e+02 5.7840570929e+02 1.0000000000e+01 0.0000e+00 1.0000e+00
 -5000521  1    3    3    0    0 -4.8738269896e+02 +7.7943025628e+01 +5.5115572463e+02 7.3992543089e+02 1.0000000000e+01 0.0000e+00 -1.0000e+00
       21  1    1    2  502  501 +1.9531392410e+01 +5.6177293725e+01 +1.4435502601e+02 1.5612731073e+02 0.0000000000e+00 0.0000e+00 1.0000e+00
<mgrwt>
<rscale>  1 0.99614576E+03</rscale>
<asrwt>0</asrwt>
<pdfrwt beam="1">  1        1 0.19094979E+00 0.99614576E+03</pdfrwt>
<pdfrwt beam="2">  1       -1 0.35889972E-01 0.99614576E+03</pdfrwt>
<totfact> 0.74158929E+01</totfact>
</mgrwt>
</event>
<event>
 6      1 +3.0741590e+01 8.75076000e+02 7.81860800e-03 9.45728500e-02
       -5 -1    0    0    0  501 -0.0000000000e+00 +0.0000000000e+00 +1.6141423473e+03 1.6141423473e+03 0.0000000000e+00 0.0000e+00 1.0000e+00
        5 -1    0    0  502    0 +0.0000000000e+00 -0.0000000000e+00 -1.2742689048e+02 1.2742689048e+02 0.0000000000e+00 0.0000e+00 -1.0000e+00
  5000001  2    1    2    0    0 +2.8570947072e+01 -1.6881339978e+00 +1.4076058226e+03 1.6574414597e+03 8.7460785028e+02 0.0000e+00 0.0000e+00
  5000521  1    3    3    0    0 -1.6243168247e+02 -5.8939881417e+01 -5.4737141332e+01 1.8153268502e+02 1.0000000000e+01 0.0000e+00 -1.0000e+00
 -5000521  1    3    3    0    0 +1.9100262954e+02 +5.7251747419e+01 +1.4623429639e+03 1.4759087747e+03 1.0000000000e+01 0.0000e+00 1.0000e+00
       21  1    1    2  502  501 -2.8570947072e+01 +1.6881339978e+00 +7.9109634236e+01 8.4127778064e+01 0.0000000000e+00 0.0000e+00 1.0000e+00
<mgrwt>
<rscale>  1 0.87507602E+03</rscale>
<asrwt>0</asrwt>
<pdfrwt beam="1">  1        5 0.19604138E-01 0.87507602E+03</pdfrwt>
<pdfrwt beam="2">  1       -5 0.24832958E+00 0.87507602E+03</pdfrwt>
<totfact> 0.12714578E+00</totfact>
</mgrwt>
</event>
<event>
 6      1 +3.0741590e+01 1.00229600e+03 7.81860800e-03 9.30603000e-02
        1 -1    0    0  502    0 +0.0000000000e+00 +0.0000000000e+00 +6.0701428836e+02 6.0701428836e+02 0.0000000000e+00 0.0000e+00 1.0000e+00
       -1 -1    0    0    0  501 -0.0000000000e+00 -0.0000000000e+00 -5.3440758297e+02 5.3440758297e+02 0.0000000000e+00 0.0000e+00 -1.0000e+00
  5000001  2    1    2    0    0 -9.6613100504e-01 -4.1922126043e+01 -5.8273197928e+01 1.0039884432e+03 1.0014183095e+03 0.0000e+00 0.0000e+00
  5000521  1    3    3    0    0 +3.6675151988e+02 -9.7851658331e+01 -3.6129056333e+02 5.2413022764e+02 1.0000000000e+01 0.0000e+00 -1.0000e+00
 -5000521  1    3    3    0    0 -3.6771765088e+02 +5.5929532287e+01 +3.0301736540e+02 4.7985821561e+02 1.0000000000e+01 0.0000e+00 1.0000e+00
       21  1    1    2  502  501 +9.6613100504e-01 +4.1922126043e+01 +1.3087990332e+02 1.3743342808e+02 0.0000000000e+00 0.0000e+00 1.0000e+00
<mgrwt>
<rscale>  1 0.10022959E+04</rscale>
<asrwt>0</asrwt>
<pdfrwt beam="1">  1        1 0.93386814E-01 0.10022959E+04</pdfrwt>
<pdfrwt beam="2">  1       -1 0.82216551E-01 0.10022959E+04</pdfrwt>
<totfact> 0.49679737E+01</totfact>
</mgrwt>
</event>
<event>
 6      1 +3.0741590e+01 9.96762800e+02 7.81860800e-03 9.31210200e-02
       -2 -1    0    0    0  501 -0.0000000000e+00 +0.0000000000e+00 +2.9981261138e+02 2.9981261138e+02 0.0000000000e+00 0.0000e+00 1.0000e+00
        2 -1    0    0  502    0 +0.0000000000e+00 -0.0000000000e+00 -9.3861642697e+02 9.3861642697e+02 0.0000000000e+00 0.0000e+00 -1.0000e+00
  5000001  2    1    2    0    0 -2.9756393880e+01 -4.7169855028e+01 -6.3641342944e+02 1.1826065326e+03 9.9520134627e+02 0.0000e+00 0.0000e+00
  5000521  1    3    3    0    0 -1.7869167864e+02 -2.2335968082e+02 +1.7735250200e+02 3.3671081509e+02 1.0000000000e+01 0.0000e+00 1.0000e+00
 -5000521  1    3    3    0    0 +1.4893528476e+02 +1.7618982579e+02 -8.1376593144e+02 8.4589571753e+02 1.0000000000e+01 0.0000e+00 -1.0000e+00
       21  1    1    2  502  501 +2.9756393880e+01 +4.7169855028e+01 -2.3903861512e+00 5.5822505731e+01 0.0000000000e+00 0.0000e+00 -1.0000e+00
<mgrwt>
<rscale>  1 0.99676284E+03</rscale>
<asrwt>0</asrwt>
<pdfrwt beam="1">  1        2 0.14440253E+00 0.99676284E+03</pdfrwt>
<pdfrwt beam="2">  1       -2 0.46125017E-01 0.99676284E+03</pdfrwt>
<totfact> 0.12285341E+02</totfact>
</mgrwt>
</event>
<event>
 6      1 +3.0741590e+01 1.06062200e+03 7.81860800e-03 9.24444500e-02
        2 -1    0    0  502    0 +0.0000000000e+00 +0.0000000000e+00 +1.1177150043e+03 1.1177150043e+03 0.0000000000e+00 0.0000e+00 1.0000e+00
       -2 -1    0    0    0  501 -0.0000000000e+00 -0.0000000000e+00 -4.5092387289e+02 4.5092387289e+02 0.0000000000e+00 0.0000e+00 -1.0000e+00
  5000001  2    1    2    0    0 -4.2270268651e+01 +3.3463714304e+02 +3.8240723021e+02 1.1274552461e+03 1.0055601668e+03 0.0000e+00 0.0000e+00
  5000521  1    3    3    0    0 +2.3993393081e+02 +6.1455069533e+02 +1.9584631063e+02 6.8825622095e+02 1.0000000000e+01 0.0000e+00 -1.0000e+00
 -5000521  1    3    3    0    0 -2.8220419946e+02 -2.7991355229e+02 +1.8656091957e+02 4.3919902511e+02 1.0000000000e+01 0.0000e+00 1.0000e+00
       21  1    1    2  502  501 +4.2270268651e+01 -3.3463714304e+02 +2.8438390122e+02 4.4118363114e+02 0.0000000000e+00 0.0000e+00 -1.0000e+00
<mgrwt>
<rscale>  1 0.10606225E+04</rscale>
<asrwt>0</asrwt>
<pdfrwt beam="1">  1        2 0.17195615E+00 0.10606225E+04</pdfrwt>
<pdfrwt beam="2">  1       -2 0.69372904E-01 0.10606225E+04</pdfrwt>
<totfact> 0.39969364E+01</totfact>
</mgrwt>
</event>
<event>
 6      1 +3.0741590e+01 1.00862800e+03 7.81860800e-03 9.29913200e-02
       -1 -1    0    0    0  501 -0.0000000000e+00 +0.0000000000e+00 +5.8617822666e+02 5.8617822666e+02 0.0000000000e+00 0.0000e+00 1.0000e+00
        1 -1    0    0  502    0 +0.0000000000e+00 -0.0000000000e+00 -8.0173376050e+02 8.0173376050e+02 0.0000000000e+00 0.0000e+00 -1.0000e+00
  5000001  2    1    2    0    0 +2.2897716262e+01 -1.0044504309e+01 +1.5155491386e+02 1.0199510133e+03 1.0083183923e+03 0.0000e+00 0.0000e+00
  5000521  1    3    3    0    0 -4.0466382037e+02 -2.7552665711e+02 +1.6407013226e+02 5.1641722918e+02 1.0000000000e+01 0.0000e+00 -1.0000e+00
 -5000521  1    3    3    0    0 +4.2756153663e+02 +2.6548215280e+02 -1.2515218402e+01 5.0353378412e+02 1.0000000000e+01 0.0000e+00 1.0000e+00
       21  1    1    2  502  501 -2.2897716262e+01 +1.0044504309e+01 -3.6711044769e+02 3.6796097386e+02 0.0000000000e+00 0.0000e+00 -1.0000e+00
<mgrwt>
<rscale>  1 0.10086284E+04</rscale>
<asrwt>0</asrwt>
<pdfrwt beam="1">  1        1 0.12334366E+00 0.10086284E+04</pdfrwt>
<pdfrwt beam="2">  1       -1 0.90181266E-01 0.10086284E+04</pdfrwt>
<totfact> 0.26545036E+01</totfact>
</mgrwt>
</event>
<event>
 6      1 +3.0741590e+01 1.01558800e+03 7.81860800e-03 9.29161200e-02
       -3 -1    0    0    0  501 -0.0000000000e+00 +0.0000000000e+00 +3.2747412319e+02 3.2747412319e+02 0.0000000000e+00 0.0000e+00 1.0000e+00
        3 -1    0    0  502    0 +0.0000000000e+00 -0.0000000000e+00 -1.0812167227e+03 1.0812167227e+03 0.0000000000e+00 0.0000e+00 -1.0000e+00
  5000001  2    1    2    0    0 +1.7101551417e+02 -2.1640570918e+01 -6.7300455664e+02 1.2183405058e+03 1.0008515547e+03 0.0000e+00 0.0000e+00
  5000521  1    3    3    0    0 +4.5088273738e+02 +8.1167289673e+00 -7.9292798719e+02 9.1224772788e+02 1.0000000000e+01 0.0000e+00 1.0000e+00
 -5000521  1    3    3    0    0 -2.7986722320e+02 -2.9757299886e+01 +1.1992343055e+02 3.0609277795e+02 1.0000000000e+01 0.0000e+00 -1.0000e+00
       21  1    1    2  502  501 -1.7101551417e+02 +2.1640570918e+01 -8.0738042882e+01 1.9035034007e+02 0.0000000000e+00 0.0000e+00 -1.0000e+00
<mgrwt>
<rscale>  1 0.10155877E+04</rscale>
<asrwt>0</asrwt>
<pdfrwt beam="1">  1        3 0.16634104E+00 0.10155877E+04</pdfrwt>
<pdfrwt beam="2">  1       -3 0.50380634E-01 0.10155877E+04</pdfrwt>
<totfact> 0.25005648E+00</totfact>
</mgrwt>
</event>
<event>
 6      1 +3.0741590e+01 1.05080600e+03 7.81860800e-03 9.25451300e-02
        2 -1    0    0  502    0 +0.0000000000e+00 +0.0000000000e+00 +5.0925084797e+02 5.0925084797e+02 0.0000000000e+00 0.0000e+00 1.0000e+00
       -2 -1    0    0    0  501 -0.0000000000e+00 -0.0000000000e+00 -1.0709504188e+03 1.0709504188e+03 0.0000000000e+00 0.0000e+00 -1.0000e+00
  5000001  2    1    2    0    0 +1.5144823645e+01 -3.2162545807e+02 -6.6321354912e+02 1.2425958925e+03 1.0002599858e+03 0.0000e+00 0.0000e+00
  5000521  1    3    3    0    0 +1.8118426551e+02 -3.2586520501e+02 +1.5772752660e+02 4.0496153219e+02 1.0000000000e+01 0.0000e+00 1.0000e+00
 -5000521  1    3    3    0    0 -1.6603944186e+02 +4.2397469350e+00 -8.2094107572e+02 8.3763436028e+02 1.0000000000e+01 0.0000e+00 -1.0000e+00
       21  1    1    2  502  501 -1.5144823645e+01 +3.2162545807e+02 +1.0151397829e+02 3.3760537430e+02 0.0000000000e+00 0.0000e+00 1.0000e+00
<mgrwt>
<rscale>  1 0.10508056E+04</rscale>
<asrwt>0</asrwt>
<pdfrwt beam="1">  1        2 0.78346286E-01 0.10508056E+04</pdfrwt>
<pdfrwt beam="2">  1       -2 0.16476160E+00 0.10508056E+04</pdfrwt>
<totfact> 0.13880474E+01</totfact>
</mgrwt>
</event>
<event>
 6      1 +3.0741590e+01 1.01503400e+03 7.81860800e-03 9.29220700e-02
       -2 -1    0    0    0  501 -0.0000000000e+00 +0.0000000000e+00 +1.6455731995e+02 1.6455731995e+02 0.0000000000e+00 0.0000e+00 -1.0000e+00
        2 -1    0    0  502    0 +0.0000000000e+00 -0.0000000000e+00 -2.3052283268e+03 2.3052283268e+03 0.0000000000e+00 0.0000e+00 1.0000e+00
  5000001  2    1    2    0    0 -1.2155629693e+02 +1.7546813692e+02 -1.6961430712e+03 1.9766628568e+03 9.9233549317e+02 0.0000e+00 0.0000e+00
  5000521  1    3    3    0    0 +3.9454131641e+01 +2.0852080549e+02 +5.3660502291e+01 2.1912782646e+02 1.0000000000e+01 0.0000e+00 -1.0000e+00
 -5000521  1    3    3    0    0 -1.6101042858e+02 -3.3052668564e+01 -1.7498035735e+03 1.7575350303e+03 1.0000000000e+01 0.0000e+00 1.0000e+00
       21  1    1    2  502  501 +1.2155629693e+02 -1.7546813692e+02 -4.4452793567e+02 4.9312278997e+02 0.0000000000e+00 0.0000e+00 1.0000e+00
<mgrwt>
<rscale>  1 0.10150343E+04</rscale>
<asrwt>0</asrwt>
<pdfrwt beam="1">  1        2 0.35465052E+00 0.10150343E+04</pdfrwt>
<pdfrwt beam="2">  1       -2 0.25316510E-01 0.10150343E+04</pdfrwt>
<totfact> 0.63500694E+01</totfact>
</mgrwt>
</event>
<event>
 6      1 +3.0741590e+01 1.01416200e+03 7.81860800e-03 9.29314700e-02
        2 -1    0    0  502    0 +0.0000000000e+00 +0.0000000000e+00 +3.5809965854e+03 3.5809965854e+03 0.0000000000e+00 0.0000e+00 -1.0000e+00
       -2 -1    0    0    0  501 -0.0000000000e+00 -0.0000000000e+00 -9.2815300390e+01 9.2815300390e+01 0.0000000000e+00 0.0000e+00 1.0000e+00
  5000001  2    1    2    0    0 +6.2551719550e+01 +1.1613065761e+02 +3.2003412419e+03 3.3571876011e+03 1.0055473519e+03 0.0000e+00 0.0000e+00
  5000521  1    3    3    0    0 +3.8384641331e+01 +2.7664350290e+02 +1.7989455264e+02 3.3236585031e+02 1.0000000000e+01 0.0000e+00 1.0000e+00
 -5000521  1    3    3    0    0 +2.4167078219e+01 -1.6051284529e+02 +3.0204466893e+03 3.0248217508e+03 1.0000000000e+01 0.0000e+00 -1.0000e+00
       21  1    1    2  502  501 -6.2551719550e+01 -1.1613065761e+02 +2.8784004306e+02 3.1662428467e+02 0.0000000000e+00 0.0000e+00 1.0000e+00
<mgrwt>
<rscale>  1 0.10141620E+04</rscale>
<asrwt>0</asrwt>
<pdfrwt beam="1">  1        2 0.55092244E+00 0.10141620E+04</pdfrwt>
<pdfrwt beam="2">  1       -2 0.14279280E-01 0.10141620E+04</pdfrwt>
<totfact> 0.28191305E+01</totfact>
</mgrwt>
</event>
<event>
 6      1 +3.0741590e+01 1.00434800e+03 7.81860800e-03 9.30378900e-02
       -4 -1    0    0    0  501 -0.0000000000e+00 +0.0000000000e+00 +4.1078858202e+02 4.1078858202e+02 0.0000000000e+00 0.0000e+00 1.0000e+00
        4 -1    0    0  502    0 +0.0000000000e+00 -0.0000000000e+00 -8.7413414240e+02 8.7413414240e+02 0.0000000000e+00 0.0000e+00 -1.0000e+00
  5000001  2    1    2    0    0 -4.0636526356e+01 -3.0989063959e+01 -5.7842672064e+02 1.1590048035e+03 1.0030468653e+03 0.0000e+00 0.0000e+00
  5000521  1    3    3    0    0 +3.5411463207e+02 +1.0884888109e+02 +7.9503878938e+01 3.7903313619e+02 1.0000000000e+01 0.0000e+00 1.0000e+00
 -5000521  1    3    3    0    0 -3.9475115842e+02 -1.3983794505e+02 -6.5793059958e+02 7.7997166732e+02 1.0000000000e+01 0.0000e+00 -1.0000e+00
       21  1    1    2  502  501 +4.0636526356e+01 +3.0989063959e+01 +1.1508116027e+02 1.2591792092e+02 0.0000000000e+00 0.0000e+00 1.0000e+00
<mgrwt>
<rscale>  1 0.10043479E+04</rscale>
<asrwt>0</asrwt>
<pdfrwt beam="1">  1        4 0.13448218E+00 0.10043479E+04</pdfrwt>
<pdfrwt beam="2">  1       -4 0.63198243E-01 0.10043479E+04</pdfrwt>
<totfact> 0.18288782E+00</totfact>
</mgrwt>
</event>
<event>
 6      1 +3.0741590e+01 1.00596100e+03 7.81860800e-03 9.30203100e-02
        2 -1    0    0  502    0 +0.0000000000e+00 +0.0000000000e+00 +4.2695519961e+02 4.2695519961e+02 0.0000000000e+00 0.0000e+00 -1.0000e+00
       -2 -1    0    0    0  501 -0.0000000000e+00 -0.0000000000e+00 -7.6525046099e+02 7.6525046099e+02 0.0000000000e+00 0.0000e+00 1.0000e+00
  5000001  2    1    2    0    0 +3.3502115523e+01 -1.9640882281e+01 -1.7091232696e+02 1.0203766679e+03 1.0052111046e+03 0.0000e+00 0.0000e+00
  5000521  1    3    3    0    0 +2.1887535747e+02 +1.7723215426e+02 -5.1233472077e+02 5.8472602535e+02 1.0000000000e+01 0.0000e+00 1.0000e+00
 -5000521  1    3    3    0    0 -1.8537324195e+02 -1.9687303654e+02 +3.4142239382e+02 4.3565064254e+02 1.0000000000e+01 0.0000e+00 -1.0000e+00
       21  1    1    2  502  501 -3.3502115523e+01 +1.9640882281e+01 -1.6738293442e+02 1.7182899271e+02 0.0000000000e+00 0.0000e+00 -1.0000e+00
<mgrwt>
<rscale>  1 0.10059610E+04</rscale>
<asrwt>0</asrwt>
<pdfrwt beam="1">  1        2 0.65685416E-01 0.10059610E+04</pdfrwt>
<pdfrwt beam="2">  1       -2 0.11773084E+00 0.10059610E+04</pdfrwt>
<totfact> 0.40969160E+01</totfact>
</mgrwt>
</event>
<event>
 6      1 +3.0741590e+01 1.19719200e+03 7.81860800e-03 9.11531800e-02
        2 -1    0    0  502    0 +0.0000000000e+00 +0.0000000000e+00 +1.3328286133e+03 1.3328286133e+03 0.0000000000e+00 0.0000e+00 1.0000e+00
       -2 -1    0    0    0  501 -0.0000000000e+00 -0.0000000000e+00 -6.5190941696e+02 6.5190941696e+02 0.0000000000e+00 0.0000e+00 -1.0000e+00
  5000001  2    1    2    0    0 +6.4003246177e+02 +1.4463421812e+02 +5.4129685465e+02 1.3138766381e+03 1.0013535470e+03 0.0000e+00 0.0000e+00
  5000521  1    3    3    0    0 +5.0063235340e+02 +1.7412250984e+02 -1.9423457379e+02 5.6460470363e+02 1.0000000000e+01 0.0000e+00 -1.0000e+00
 -5000521  1    3    3    0    0 +1.3940010837e+02 -2.9488291721e+01 +7.3553142844e+02 7.4927193447e+02 1.0000000000e+01 0.0000e+00 1.0000e+00
       21  1    1    2  502  501 -6.4003246177e+02 -1.4463421812e+02 +1.3962234168e+02 6.7086139214e+02 0.0000000000e+00 0.0000e+00 1.0000e+00
<mgrwt>
<rscale>  1 0.11971924E+04</rscale>
<asrwt>0</asrwt>
<pdfrwt beam="1">  1        2 0.20505056E+00 0.11971924E+04</pdfrwt>
<pdfrwt beam="2">  1       -2 0.10029376E+00 0.11971924E+04</pdfrwt>
<totfact> 0.12693332E+01</totfact>
</mgrwt>
</event>
<event>
 6      1 +3.0741590e+01 1.00430000e+03 7.81860800e-03 9.30384200e-02
       -1 -1    0    0    0  501 -0.0000000000e+00 +0.0000000000e+00 +4.5486417288e+02 4.5486417288e+02 0.0000000000e+00 0.0000e+00 -1.0000e+00
        1 -1    0    0  502    0 +0.0000000000e+00 -0.0000000000e+00 -6.6701546604e+02 6.6701546604e+02 0.0000000000e+00 0.0000e+00 1.0000e+00
  5000001  2    1    2    0    0 -5.5015371968e+01 +6.7153114652e+01 -1.5075551606e+02 1.0155514987e+03 1.0005405483e+03 0.0000e+00 0.0000e+00
  5000521  1    3    3    0    0 -2.8080044379e+02 +1.0382343305e+02 -5.0887608232e+02 5.9049391330e+02 1.0000000000e+01 0.0000e+00 1.0000e+00
 -5000521  1    3    3    0    0 +2.2578507182e+02 -3.6670318400e+01 +3.5812056627e+02 4.2505758538e+02 1.0000000000e+01 0.0000e+00 -1.0000e+00
       21  1    1    2  502  501 +5.5015371968e+01 -6.7153114652e+01 -6.1395777106e+01 1.0632814024e+02 0.0000000000e+00 0.0000e+00 -1.0000e+00
<mgrwt>
<rscale>  1 0.10042996E+04</rscale>
<asrwt>0</asrwt>
<pdfrwt beam="1">  1        1 0.10261776E+00 0.10042996E+04</pdfrwt>
<pdfrwt beam="2">  1       -1 0.69979104E-01 0.10042996E+04</pdfrwt>
<totfact> 0.60653787E+01</totfact>
</mgrwt>
</event>
<event>
 6      1 +3.0741590e+01 1.02324300e+03 7.81860800e-03 9.28341400e-02
        2 -1    0    0  502    0 +0.0000000000e+00 +0.0000000000e+00 +5.5983046078e+02 5.5983046078e+02 0.0000000000e+00 0.0000e+00 1.0000e+00
       -2 -1    0    0    0  501 -0.0000000000e+00 -0.0000000000e+00 -6.5811217370e+02 6.5811217370e+02 0.0000000000e+00 0.0000e+00 -1.0000e+00
  5000001  2    1    2    0    0 +5.4456505680e+00 -6.3266368290e+01 +8.2275061132e+01 1.0265450454e+03 1.0212704128e+03 0.0000e+00 0.0000e+00
  5000521  1    3    3    0    0 +1.6706072807e+02 +4.2724772800e+02 -1.1592769585e+02 4.7327490807e+02 1.0000000000e+01 0.0000e+00 -1.0000e+00
 -5000521  1    3    3    0    0 -1.6161507750e+02 -4.9051409629e+02 +1.9820275698e+02 5.5327013728e+02 1.0000000000e+01 0.0000e+00 1.0000e+00
       21  1    1    2  502  501 -5.4456505680e+00 +6.3266368290e+01 -1.8055677405e+02 1.9139758913e+02 0.0000000000e+00 0.0000e+00 1.0000e+00
<mgrwt>
<rscale>  1 0.10232427E+04</rscale>
<asrwt>0</asrwt>
<pdfrwt beam="1">  1        2 0.86127763E-01 0.10232427E+04</pdfrwt>
<pdfrwt beam="2">  1       -2 0.10124803E+00 0.10232427E+04</pdfrwt>
<totfact> 0.43025375E+01</totfact>
</mgrwt>
</event>
<event>
 6      1 +3.0741590e+01 1.00017200e+03 7.81860800e-03 9.30835600e-02
        2 -1    0    0  502    0 -0.0000000000e+00 +0.0000000000e+00 +2.5217111192e+02 2.5217111192e+02 0.0000000000e+00 0.0000e+00 -1.0000e+00
       21 -1    0    0  501  502 +0.0000000000e+00 -0.0000000000e+00 -1.3426999320e+03 1.3426999320e+03 0.0000000000e+00 0.0000e+00 1.0000e+00
  5000001  2    1    2    0    0 -4.3704921094e+01 +7.8033043225e+01 -7.7039625392e+02 1.2624795039e+03 9.9616506351e+02 0.0000e+00 0.0000e+00
  5000521  1    3    3    0    0 +4.5725233513e+02 +1.6892058382e+02 -3.2504317732e+02 5.8597519465e+02 1.0000000000e+01 0.0000e+00 -1.0000e+00
 -5000521  1    3    3    0    0 -5.0095725622e+02 -9.0887540595e+01 -4.4535307660e+02 6.7650430925e+02 1.0000000000e+01 0.0000e+00 1.0000e+00
        2  1    1    2  501    0 +4.3704921094e+01 -7.8033043225e+01 -3.2013256615e+02 3.3239154001e+02 0.0000000000e+00 0.0000e+00 -1.0000e+00
<mgrwt>
<rscale>  1 0.10001720E+04</rscale>
<asrwt>0</asrwt>
<pdfrwt beam="1">  1       21 0.20656921E+00 0.10001720E+04</pdfrwt>
<pdfrwt beam="2">  1        2 0.38795557E-01 0.10001720E+04</pdfrwt>
<totfact> 0.15246165E+02</totfact>
</mgrwt>
</event>
<event>
 6      1 +3.0741590e+01 1.00978400e+03 7.81860800e-03 9.29787900e-02
        2 -1    0    0  502    0 +0.0000000000e+00 +0.0000000000e+00 +1.0388680290e+03 1.0388680290e+03 0.0000000000e+00 0.0000e+00 -1.0000e+00
       -2 -1    0    0    0  501 -0.0000000000e+00 -0.0000000000e+00 -3.4015615605e+02 3.4015615605e+02 0.0000000000e+00 0.0000e+00 1.0000e+00
  5000001  2    1    2    0    0 +2.8485522844e+00 +4.3051755401e+01 +4.1448382117e+02 1.0915400058e+03 1.0088613276e+03 0.0000e+00 0.0000e+00
  5000521  1    3    3    0    0 -1.3228808269e+02 +2.3603721358e+02 -2.6100090188e+02 3.7607868033e+02 1.0000000000e+01 0.0000e+00 1.0000e+00
 -5000521  1    3    3    0    0 +1.3513663498e+02 -1.9298545818e+02 +6.7548472305e+02 7.1546132548e+02 1.0000000000e+01 0.0000e+00 -1.0000e+00
       21  1    1    2  502  501 -2.8485522844e+00 -4.3051755401e+01 +2.8422805177e+02 2.8748417923e+02 0.0000000000e+00 0.0000e+00 1.0000e+00
<mgrwt>
<rscale>  1 0.10097835E+04</rscale>
<asrwt>0</asrwt>
<pdfrwt beam="1">  1        2 0.15982585E+00 0.10097835E+04</pdfrwt>
<pdfrwt beam="2">  1       -2 0.52331717E-01 0.10097835E+04</pdfrwt>
<totfact> 0.81733945E+01</totfact>
</mgrwt>
</event>
<event>
 6      1 +3.0741590e+01 1.00019700e+03 7.81860800e-03 9.30832900e-02
        2 -1    0    0  502    0 +0.0000000000e+00 +0.0000000000e+00 +1.5967631046e+03 1.5967631046e+03 0.0000000000e+00 0.0000e+00 1.0000e+00
       -2 -1    0    0    0  501 -0.0000000000e+00 -0.0000000000e+00 -2.0247015307e+02 2.0247015307e+02 0.0000000000e+00 0.0000e+00 -1.0000e+00
  5000001  2    1    2    0    0 -5.0748135928e+01 +4.5982929871e+01 +1.0576079776e+03 1.4556541913e+03 9.9785003250e+02 0.0000e+00 0.0000e+00
  5000521  1    3    3    0    0 +9.5361877185e+01 -9.3141465663e+01 +1.2006935508e+03 1.2081118422e+03 1.0000000000e+01 0.0000e+00 1.0000e+00
 -5000521  1    3    3    0    0 -1.4611001311e+02 +1.3912439553e+02 -1.4308557322e+02 2.4754234916e+02 1.0000000000e+01 0.0000e+00 -1.0000e+00
       21  1    1    2  502  501 +5.0748135928e+01 -4.5982929871e+01 +3.3668497396e+02 3.4357906634e+02 0.0000000000e+00 0.0000e+00 1.0000e+00
<mgrwt>
<rscale>  1 0.10001972E+04</rscale>
<asrwt>0</asrwt>
<pdfrwt beam="1">  1        2 0.24565585E+00 0.10001972E+04</pdfrwt>
<pdfrwt beam="2">  1       -2 0.31149255E-01 0.10001972E+04</pdfrwt>
<totfact> 0.10690873E+02</totfact>
</mgrwt>
</event>
<event>
 6      1 +3.0741590e+01 9.99677300e+02 7.81860800e-03 9.30889900e-02
        2 -1    0    0  502    0 +0.0000000000e+00 +0.0000000000e+00 +3.9487153096e+02 3.9487153096e+02 0.0000000000e+00 0.0000e+00 -1.0000e+00
       -2 -1    0    0    0  501 -0.0000000000e+00 -0.0000000000e+00 -7.0317902561e+02 7.0317902561e+02 0.0000000000e+00 0.0000e+00 1.0000e+00
  5000001  2    1    2    0    0 -2.0240779039e+01 -6.4334869038e+00 -3.4341495930e+02 1.0570187035e+03 9.9945166288e+02 0.0000e+00 0.0000e+00
  5000521  1    3    3    0    0 +6.3388542365e+01 +4.1184289067e+02 +1.1337217139e+02 4.3195592732e+02 1.0000000000e+01 0.0000e+00 -1.0000e+00
 -5000521  1    3    3    0    0 -8.3629321404e+01 -4.1827637758e+02 -4.5678713069e+02 6.2506277621e+02 1.0000000000e+01 0.0000e+00 1.0000e+00
       21  1    1    2  502  501 +2.0240779039e+01 +6.4334869038e+00 +3.5107464654e+01 4.1031853045e+01 0.0000000000e+00 0.0000e+00 -1.0000e+00
<mgrwt>
<rscale>  1 0.99967730E+03</rscale>
<asrwt>0</asrwt>
<pdfrwt beam="1">  1        2 0.60749467E-01 0.99967730E+03</pdfrwt>
<pdfrwt beam="2">  1       -2 0.10818139E+00 0.99967730E+03</pdfrwt>
<totfact> 0.55080109E+01</totfact>
</mgrwt>
</event>
<event>
 6      1 +3.0741590e+01 9.71026800e+02 7.81860800e-03 9.34090600e-02
        2 -1    0    0  502    0 +0.0000000000e+00 +0.0000000000e+00 +4.3098288789e+03 4.3098288789e+03 0.0000000000e+00 0.0000e+00 1.0000e+00
       -2 -1    0    0    0  501 -0.0000000000e+00 -0.0000000000e+00 -7.3785922731e+01 7.3785922731e+01 0.0000000000e+00 0.0000e+00 -1.0000e+00
  5000001  2    1    2    0    0 +3.3313005209e+01 -8.7116000798e+01 +4.1289821275e+03 4.2416254536e+03 9.6653718277e+02 0.0000e+00 0.0000e+00
  5000521  1    3    3    0    0 +1.6676163026e+02 +9.3001188955e+01 +1.1866043361e+02 2.2503102225e+02 1.0000000000e+01 0.0000e+00 -1.0000e+00
 -5000521  1    3    3    0    0 -1.3344862505e+02 -1.8011718975e+02 +4.0103216939e+03 4.0165944314e+03 1.0000000000e+01 0.0000e+00 1.0000e+00
       21  1    1    2  502  501 -3.3313005209e+01 +8.7116000798e+01 +1.0706082864e+02 1.4198934798e+02 0.0000000000e+00 0.0000e+00 -1.0000e+00
<mgrwt>
<rscale>  1 0.97102682E+03</rscale>
<asrwt>0</asrwt>
<pdfrwt beam="1">  1        2 0.66305040E+00 0.97102682E+03</pdfrwt>
<pdfrwt beam="2">  1       -2 0.11351684E-01 0.97102682E+03</pdfrwt>
<totfact> 0.11152591E+01</totfact>
</mgrwt>
</event>
<event>
 6      1 +3.0741590e+01 9.89335800e+02 7.81860800e-03 9.32031900e-02
       -1 -1    0    0    0  501 -0.0000000000e+00 +0.0000000000e+00 +1.4804091537e+02 1.4804091537e+02 0.0000000000e+00 0.0000e+00 -1.0000e+00
        1 -1    0    0  502    0 +0.0000000000e+00 -0.0000000000e+00 -1.8239559529e+03 1.8239559529e+03 0.0000000000e+00 0.0000e+00 1.0000e+00
  5000001  2    1    2    0    0 -2.2520226285e+01 -4.3480196910e+01 -1.5773603243e+03 1.8619481535e+03 9.8812329477e+02 0.0000e+00 0.0000e+00
  5000521  1    3    3    0    0 +2.3900488461e+01 +2.2402520469e+01 -1.7078808751e+03 1.7082242797e+03 1.0000000000e+01 0.0000e+00 1.0000e+00
 -5000521  1    3    3    0    0 -4.6420714745e+01 -6.5882717379e+01 +1.3052055079e+02 1.5372387383e+02 1.0000000000e+01 0.0000e+00 -1.0000e+00
       21  1    1    2  502  501 +2.2520226285e+01 +4.3480196910e+01 -9.8554713251e+01 1.1004871476e+02 0.0000000000e+00 0.0000e+00 1.0000e+00
<mgrwt>
<rscale>  1 0.98933580E+03</rscale>
<asrwt>0</asrwt>
<pdfrwt beam="1">  1        1 0.28060860E+00 0.98933580E+03</pdfrwt>
<pdfrwt beam="2">  1       -1 0.22775526E-01 0.98933580E+03</pdfrwt>
<totfact> 0.64865545E+01</totfact>
</mgrwt>
</event>
<event>
 6      1 +3.0741590e+01 9.68794300e+02 7.81860800e-03 9.34344900e-02
        2 -1    0    0  502    0 +0.0000000000e+00 +0.0000000000e+00 +1.2861818568e+03 1.2861818568e+03 0.0000000000e+00 0.0000e+00 -1.0000e+00
       -2 -1    0    0    0  501 -0.0000000000e+00 -0.0000000000e+00 -2.5724203228e+02 2.5724203228e+02 0.0000000000e+00 0.0000e+00 1.0000e+00
  5000001  2    1    2    0    0 +1.0540070926e+02 -2.7660395767e+01 +6.9540523838e+02 1.1925396815e+03 9.6264637292e+02 0.0000e+00 0.0000e+00
  5000521  1    3    3    0    0 -1.4842341915e+02 +4.2469508716e+02 +3.2233123258e+02 5.5352764331e+02 1.0000000000e+01 0.0000e+00 1.0000e+00
 -5000521  1    3    3    0    0 +2.5382412841e+02 -4.5235548293e+02 +3.7307400580e+02 6.3901203815e+02 1.0000000000e+01 0.0000e+00 -1.0000e+00
       21  1    1    2  502  501 -1.0540070926e+02 +2.7660395767e+01 +3.3353458613e+02 3.5088420761e+02 0.0000000000e+00 0.0000e+00 1.0000e+00
<mgrwt>
<rscale>  1 0.96879433E+03</rscale>
<asrwt>0</asrwt>
<pdfrwt beam="1">  1        2 0.19787413E+00 0.96879433E+03</pdfrwt>
<pdfrwt beam="2">  1       -2 0.39575698E-01 0.96879433E+03</pdfrwt>
<totfact> 0.10168353E+02</totfact>
</mgrwt>
</event>
<event>
 6      1 +3.0741590e+01 1.00142200e+03 7.81860800e-03 9.30698700e-02
       -2 -1    0    0    0  501 -0.0000000000e+00 +0.0000000000e+00 +3.9799896281e+02 3.9799896281e+02 0.0000000000e+00 0.0000e+00 -1.0000e+00
        2 -1    0    0  502    0 +0.0000000000e+00 -0.0000000000e+00 -6.8028740444e+02 6.8028740444e+02 0.0000000000e+00 0.0000e+00 1.0000e+00
  5000001  2    1    2    0    0 -3.7541063509e+01 -1.1675300071e-01 -2.8332880954e+02 1.0407307093e+03 1.0007176674e+03 0.0000e+00 0.0000e+00
  5000521  1    3    3    0    0 +3.7991729757e+02 -2.8412847677e+02 -2.4561515852e+02 5.3431540348e+02 1.0000000000e+01 0.0000e+00 1.0000e+00
 -5000521  1    3    3    0    0 -4.1745836108e+02 +2.8401172377e+02 -3.7713651027e+01 5.0641530580e+02 1.0000000000e+01 0.0000e+00 -1.0000e+00
       21  1    1    2  502  501 +3.7541063509e+01 +1.1675300071e-01 +1.0403679159e+00 3.7555657977e+01 0.0000000000e+00 0.0000e+00 1.0000e+00
<mgrwt>
<rscale>  1 0.10014216E+04</rscale>
<asrwt>0</asrwt>
<pdfrwt beam="1">  1        2 0.10465960E+00 0.10014216E+04</pdfrwt>
<pdfrwt beam="2">  1       -2 0.61230610E-01 0.10014216E+04</pdfrwt>
<totfact> 0.10521972E+02</totfact>
</mgrwt>
</event>
<event>
 6      1 +3.0741590e+01 9.99459800e+02 7.81860800e-03 9.30913800e-02
       -2 -1    0    0    0  501 -0.0000000000e+00 +0.0000000000e+00 +3.4256903482e+02 3.4256903482e+02 0.0000000000e+00 0.0000e+00 -1.0000e+00
        2 -1    0    0  502    0 +0.0000000000e+00 -0.0000000000e+00 -8.3378744036e+02 8.3378744036e+02 0.0000000000e+00 0.0000e+00 1.0000e+00
  5000001  2    1    2    0    0 +2.7880464807e+01 +3.8940279422e+01 -5.1336222945e+02 1.1235927128e+03 9.9831164475e+02 0.0000e+00 0.0000e+00
  5000521  1    3    3    0    0 -1.9491319266e+02 +2.9317004194e+01 -7.6334733318e+02 7.8844770942e+02 1.0000000000e+01 0.0000e+00 1.0000e+00
 -5000521  1    3    3    0    0 +2.2279365747e+02 +9.6232752279e+00 +2.4998510373e+02 3.3514500343e+02 1.0000000000e+01 0.0000e+00 -1.0000e+00
       21  1    1    2  502  501 -2.7880464807e+01 -3.8940279422e+01 +2.2143823910e+01 5.2763762344e+01 0.0000000000e+00 0.0000e+00 1.0000e+00
<mgrwt>
<rscale>  1 0.99945976E+03</rscale>
<asrwt>0</asrwt>
<pdfrwt beam="1">  1        2 0.12827499E+00 0.99945976E+03</pdfrwt>
<pdfrwt beam="2">  1       -2 0.52702929E-01 0.99945976E+03</pdfrwt>
<totfact> 0.11044531E+02</totfact>
</mgrwt>
</event>
<event>
 6      1 +3.0741590e+01 1.02191000e+03 7.81860800e-03 9.28483500e-02
        2 -1    0    0  502    0 +0.0000000000e+00 +0.0000000000e+00 +1.6452975682e+03 1.6452975682e+03 0.0000000000e+00 0.0000e+00 -1.0000e+00
       -2 -1    0    0    0  501 -0.0000000000e+00 -0.0000000000e+00 -3.5360583601e+02 3.5360583601e+02 0.0000000000e+00 0.0000e+00 1.0000e+00
  5000001  2    1    2    0    0 +3.8276176362e+00 +8.7252881181e+01 +1.4758331908e+03 1.7951000856e+03 1.0181713973e+03 0.0000e+00 0.0000e+00
  5000521  1    3    3    0    0 +3.8431625170e+02 +7.6315854593e+01 +1.5670339191e+02 4.2211259638e+02 1.0000000000e+01 0.0000e+00 1.0000e+00
 -5000521  1    3    3    0    0 -3.8048863406e+02 +1.0937026588e+01 +1.3191297989e+03 1.3729874892e+03 1.0000000000e+01 0.0000e+00 -1.0000e+00
       21  1    1    2  502  501 -3.8276176362e+00 -8.7252881181e+01 -1.8414145857e+02 2.0380331866e+02 0.0000000000e+00 0.0000e+00 1.0000e+00
<mgrwt>
<rscale>  1 0.10219103E+04</rscale>
<asrwt>0</asrwt>
<pdfrwt beam="1">  1        2 0.25312270E+00 0.10219103E+04</pdfrwt>
<pdfrwt beam="2">  1       -2 0.54400899E-01 0.10219103E+04</pdfrwt>
<totfact> 0.33396800E+01</totfact>
</mgrwt>
</event>
<event>
 6      1 +3.0741590e+01 1.01852900e+03 7.81860800e-03 9.28845300e-02
        1 -1    0    0  502    0 +0.0000000000e+00 +0.0000000000e+00 +8.6969680545e+02 8.6969680545e+02 0.0000000000e+00 0.0000e+00 -1.0000e+00
       -1 -1    0    0    0  501 -0.0000000000e+00 -0.0000000000e+00 -4.2832588677e+02 4.2832588677e+02 0.0000000000e+00 0.0000e+00 1.0000e+00
  5000001  2    1    2    0    0 -1.0121101396e+02 +9.8036020224e+01 +5.1247767613e+02 1.1401908147e+03 1.0087353443e+03 0.0000e+00 0.0000e+00
  5000521  1    3    3    0    0 -3.8526738110e+02 +3.8446200689e+02 +8.2614723584e+01 5.5060619523e+02 1.0000000000e+01 0.0000e+00 1.0000e+00
 -5000521  1    3    3    0    0 +2.8405636713e+02 -2.8642598666e+02 +4.2986295254e+02 5.8958461947e+02 1.0000000000e+01 0.0000e+00 -1.0000e+00
       21  1    1    2  502  501 +1.0121101396e+02 -9.8036020224e+01 -7.1106757449e+01 1.5783187753e+02 0.0000000000e+00 0.0000e+00 -1.0000e+00
<mgrwt>
<rscale>  1 0.10185292E+04</rscale>
<asrwt>0</asrwt>
<pdfrwt beam="1">  1        1 0.13379951E+00 0.10185292E+04</pdfrwt>
<pdfrwt beam="2">  1       -1 0.65896291E-01 0.10185292E+04</pdfrwt>
<totfact> 0.45060912E+01</totfact>
</mgrwt>
</event>
<event>
 6      1 +3.0741590e+01 1.03234700e+03 7.81860800e-03 9.27376200e-02
       -1 -1    0    0    0  501 -0.0000000000e+00 +0.0000000000e+00 +2.4830379445e+02 2.4830379445e+02 0.0000000000e+00 0.0000e+00 1.0000e+00
        1 -1    0    0  502    0 +0.0000000000e+00 -0.0000000000e+00 -1.8220990495e+03 1.8220990495e+03 0.0000000000e+00 0.0000e+00 -1.0000e+00
  5000001  2    1    2    0    0 +2.4909475534e+02 +2.3166722695e+01 -1.4773092945e+03 1.8022714680e+03 1.0015761572e+03 0.0000e+00 0.0000e+00
  5000521  1    3    3    0    0 +3.3574884516e+02 -4.3410538063e+02 -6.3052956083e+02 8.3596787953e+02 1.0000000000e+01 0.0000e+00 1.0000e+00
 -5000521  1    3    3    0    0 -8.6654089825e+01 +4.5727210332e+02 -8.4677973365e+02 9.6630358847e+02 1.0000000000e+01 0.0000e+00 -1.0000e+00
       21  1    1    2  502  501 -2.4909475534e+02 -2.3166722695e+01 -9.6485960547e+01 2.6813137593e+02 0.0000000000e+00 0.0000e+00 1.0000e+00
<mgrwt>
<rscale>  1 0.10323467E+04</rscale>
<asrwt>0</asrwt>
<pdfrwt beam="1">  1        1 0.28032292E+00 0.10323467E+04</pdfrwt>
<pdfrwt beam="2">  1       -1 0.38200585E-01 0.10323467E+04</pdfrwt>
<totfact> 0.26194852E+01</totfact>
</mgrwt>
</event>
<event>
 6      1 +3.0741590e+01 9.11476400e+02 7.81860800e-03 9.41134800e-02
       21 -1    0    0  501  502 +0.0000000000e+00 +0.0000000000e+00 +4.5525219282e+02 4.5525219282e+02 0.0000000000e+00 0.0000e+00 -1.0000e+00
        5 -1    0    0  502    0 -0.0000000000e+00 -0.0000000000e+00 -6.8490304283e+02 6.8490304283e+02 0.0000000000e+00 0.0000e+00 1.0000e+00
  5000001  2    1    2    0    0 -2.1408979074e+01 -4.5461395922e+01 -3.7557424716e+02 9.8582208711e+02 9.1009015455e+02 0.0000e+00 0.0000e+00
  5000521  1    3    3    0    0 -9.5658541174e+01 +7.6784935284e+01 -6.5782710351e+02 6.6924060016e+02 1.0000000000e+01 0.0000e+00 1.0000e+00
 -5000521  1    3    3    0    0 +7.4249562100e+01 -1.2224633121e+02 +2.8225285635e+02 3.1658148696e+02 1.0000000000e+01 0.0000e+00 -1.0000e+00
        5  1    1    2  501    0 +2.1408979074e+01 +4.5461395922e+01 +1.4592339715e+02 1.5433314854e+02 0.0000000000e+00 0.0000e+00 1.0000e+00
<mgrwt>
<rscale>  1 0.91147637E+03</rscale>
<asrwt>0</asrwt>
<pdfrwt beam="1">  1       21 0.70038799E-01 0.91147637E+03</pdfrwt>
<pdfrwt beam="2">  1        5 0.10536970E+00 0.91147637E+03</pdfrwt>
<totfact> 0.34270980E+01</totfact>
</mgrwt>
</event>
<event>
 6      1 +3.0741590e+01 9.95535700e+02 7.81860800e-03 9.31345500e-02
       -3 -1    0    0    0  501 -0.0000000000e+00 +0.0000000000e+00 +1.3470233993e+02 1.3470233993e+02 0.0000000000e+00 0.0000e+00 1.0000e+00
        3 -1    0    0  502    0 +0.0000000000e+00 -0.0000000000e+00 -2.0653595490e+03 2.0653595490e+03 0.0000000000e+00 0.0000e+00 -1.0000e+00
  5000001  2    1    2    0    0 +6.9212444357e+00 +3.3780103140e+01 -1.7260644973e+03 1.9925837535e+03 9.9493837333e+02 0.0000e+00 0.0000e+00
  5000521  1    3    3    0    0 +2.1341738402e+02 -2.1361745881e+01 +3.5880958889e+01 2.1769415978e+02 1.0000000000e+01 0.0000e+00 1.0000e+00
 -5000521  1    3    3    0    0 -2.0649613959e+02 +5.5141849021e+01 -1.7619454562e+03 1.7748895937e+03 1.0000000000e+01 0.0000e+00 -1.0000e+00
       21  1    1    2  502  501 -6.9212444357e+00 -3.3780103140e+01 -2.0459271177e+02 2.0747813548e+02 0.0000000000e+00 0.0000e+00 1.0000e+00
<mgrwt>
<rscale>  1 0.99553572E+03</rscale>
<asrwt>0</asrwt>
<pdfrwt beam="1">  1        3 0.31774758E+00 0.99553572E+03</pdfrwt>
<pdfrwt beam="2">  1       -3 0.20723440E-01 0.99553572E+03</pdfrwt>
<totfact> 0.17689911E+00</totfact>
</mgrwt>
</event>
<event>
 5      1 +3.0741590e+01 8.14143000e+02 7.81860800e-03 9.53976800e-02
        2 -1    0    0  502    0 +0.0000000000e+00 +0.0000000000e+00 +2.3352033881e+02 2.3352033881e+02 0.0000000000e+00 0.0000e+00 1.0000e+00
       -2 -1    0    0    0  501 -0.0000000000e+00 -0.0000000000e+00 -1.5503596914e+03 1.5503596914e+03 0.0000000000e+00 0.0000e+00 -1.0000e+00
  5000521  1    1    2    0    0 +2.8167604862e+02 +3.0480805358e+02 -9.4234292725e+01 4.2571052115e+02 1.0000000000e+01 0.0000e+00 1.0000e+00
 -5000521  1    1    2    0    0 -2.1158631807e+02 -2.7442868891e+02 -3.8894318495e+02 5.2101504433e+02 1.0000000000e+01 0.0000e+00 -1.0000e+00
       21  1    1    2  502  501 -7.0089730551e+01 -3.0379364672e+01 -8.3366187491e+02 8.3715446472e+02 0.0000000000e+00 0.0000e+00 -1.0000e+00
<mgrwt>
<rscale>  1 0.81414300E+03</rscale>
<asrwt>0</asrwt>
<pdfrwt beam="1">  1        2 0.35926206E-01 0.81414300E+03</pdfrwt>
<pdfrwt beam="2">  1       -2 0.23851687E+00 0.81414300E+03</pdfrwt>
<totfact> 0.11184751E+01</totfact>
</mgrwt>
</event>
<event>
 6      1 +3.0741590e+01 1.01739200e+03 7.81860800e-03 9.28967300e-02
       -1 -1    0    0    0  501 -0.0000000000e+00 +0.0000000000e+00 +6.5741288381e+02 6.5741288381e+02 0.0000000000e+00 0.0000e+00 1.0000e+00
        1 -1    0    0  502    0 +0.0000000000e+00 -0.0000000000e+00 -5.8727628540e+02 5.8727628540e+02 0.0000000000e+00 0.0000e+00 -1.0000e+00
  5000001  2    1    2    0    0 -1.8294272882e+01 -9.9163404752e+00 +2.6289642117e+02 1.0508094036e+03 1.0171788733e+03 0.0000e+00 0.0000e+00
  5000521  1    3    3    0    0 +4.1766866818e+02 -2.5405766027e+02 +6.2866487049e+00 4.8901117888e+02 1.0000000000e+01 0.0000e+00 1.0000e+00
 -5000521  1    3    3    0    0 -4.3596294106e+02 +2.4414131979e+02 +2.5660977246e+02 5.6179822475e+02 1.0000000000e+01 0.0000e+00 -1.0000e+00
       21  1    1    2  502  501 +1.8294272882e+01 +9.9163404752e+00 -1.9275982277e+02 1.9387976558e+02 0.0000000000e+00 0.0000e+00 -1.0000e+00
<mgrwt>
<rscale>  1 0.10173917E+04</rscale>
<asrwt>0</asrwt>
<pdfrwt beam="1">  1        1 0.90350198E-01 0.10173917E+04</pdfrwt>
<pdfrwt beam="2">  1       -1 0.10114044E+00 0.10173917E+04</pdfrwt>
<totfact> 0.32850821E+01</totfact>
</mgrwt>
</event>
<event>
 6      1 +3.0741590e+01 9.95215100e+02 7.81860800e-03 9.31380800e-02
        2 -1    0    0  502    0 +0.0000000000e+00 +0.0000000000e+00 +7.8988203032e+02 7.8988203032e+02 0.0000000000e+00 0.0000e+00 -1.0000e+00
       -2 -1    0    0    0  501 -0.0000000000e+00 -0.0000000000e+00 -4.9886368504e+02 4.9886368504e+02 0.0000000000e+00 0.0000e+00 1.0000e+00
  5000001  2    1    2    0    0 -2.1841709777e+01 +5.6324081722e+01 +3.7788204676e+00 9.9522228004e+02 9.9337990957e+02 0.0000e+00 0.0000e+00
  5000521  1    3    3    0    0 +1.6701385691e+02 +2.4032959508e+01 +4.6549350560e+02 4.9523268804e+02 1.0000000000e+01 0.0000e+00 -1.0000e+00
 -5000521  1    3    3    0    0 -1.8885556668e+02 +3.2291122214e+01 -4.6171468514e+02 4.9998959200e+02 1.0000000000e+01 0.0000e+00 1.0000e+00
       21  1    1    2  502  501 +2.1841709777e+01 -5.6324081722e+01 +2.8723952481e+02 2.9352343532e+02 0.0000000000e+00 0.0000e+00 -1.0000e+00
<mgrwt>
<rscale>  1 0.99521511E+03</rscale>
<asrwt>0</asrwt>
<pdfrwt beam="1">  1        2 0.12152031E+00 0.99521511E+03</pdfrwt>
<pdfrwt beam="2">  1       -2 0.76748260E-01 0.99521511E+03</pdfrwt>
<totfact> 0.52986064E+01</totfact>
</mgrwt>
</event>
<event>
 6      1 +3.0741590e+01 9.84250200e+02 7.81860800e-03 9.32599000e-02
        2 -1    0    0  502    0 +0.0000000000e+00 +0.0000000000e+00 +2.3676197019e+03 2.3676197019e+03 0.0000000000e+00 0.0000e+00 -1.0000e+00
       -2 -1    0    0    0  501 -0.0000000000e+00 -0.0000000000e+00 -1.2839355651e+02 1.2839355651e+02 0.0000000000e+00 0.0000e+00 1.0000e+00
  5000001  2    1    2    0    0 -2.6685715245e+00 +6.9156671583e+01 +1.8014091039e+03 2.0527599129e+03 9.8181400165e+02 0.0000e+00 0.0000e+00
  5000521  1    3    3    0    0 -1.5638525566e+02 +2.6543419146e+02 +8.6989176395e+01 3.2027921412e+02 1.0000000000e+01 0.0000e+00 1.0000e+00
 -5000521  1    3    3    0    0 +1.5371668413e+02 -1.9627751988e+02 +1.7144199275e+03 1.7324806988e+03 1.0000000000e+01 0.0000e+00 -1.0000e+00
       21  1    1    2  502  501 +2.6685715245e+00 -6.9156671583e+01 +4.3781704147e+02 4.4325334550e+02 0.0000000000e+00 0.0000e+00 -1.0000e+00
<mgrwt>
<rscale>  1 0.98425022E+03</rscale>
<asrwt>0</asrwt>
<pdfrwt beam="1">  1        2 0.36424915E+00 0.98425022E+03</pdfrwt>
<pdfrwt beam="2">  1       -2 0.19752857E-01 0.98425022E+03</pdfrwt>
<totfact> 0.91470686E+01</totfact>
</mgrwt>
</event>
<event>
 6      1 +3.0741590e+01 9.11977300e+02 7.81860800e-03 9.41073200e-02
        2 -1    0    0  502    0 -0.0000000000e+00 +0.0000000000e+00 +3.4292078123e+03 3.4292078123e+03 0.0000000000e+00 0.0000e+00 1.0000e+00
       21 -1    0    0  501  502 +0.0000000000e+00 -0.0000000000e+00 -1.0553808214e+02 1.0553808214e+02 0.0000000000e+00 0.0000e+00 1.0000e+00
  5000001  2    1    2    0    0 -5.4066031173e+01 +6.3475469743e+01 +1.8886735079e+03 2.0973293129e+03 9.0815767154e+02 0.0000e+00 0.0000e+00
  5000521  1    3    3    0    0 -1.3243269317e+02 -1.3891022328e+02 -4.0020590234e+00 1.9222508897e+02 1.0000000000e+01 0.0000e+00 1.0000e+00
 -5000521  1    3    3    0    0 +7.8366661998e+01 +2.0238569302e+02 +1.8926755670e+03 1.9051042240e+03 1.0000000000e+01 0.0000e+00 -1.0000e+00
        2  1    1    2  501    0 +5.4066031173e+01 -6.3475469743e+01 +1.4349962222e+03 1.4374165815e+03 0.0000000000e+00 0.0000e+00 1.0000e+00
<mgrwt>
<rscale>  1 0.91197732E+03</rscale>
<asrwt>0</asrwt>
<pdfrwt beam="1">  1       21 0.16236631E-01 0.91197732E+03</pdfrwt>
<pdfrwt beam="2">  1        2 0.52757035E+00 0.91197732E+03</pdfrwt>
<totfact> 0.38933428E+02</totfact>
</mgrwt>
</event>
<event>
 6      1 +3.0741590e+01 1.03988000e+03 7.81860800e-03 9.26585500e-02
       -2 -1    0    0    0  501 -0.0000000000e+00 +0.0000000000e+00 +1.6039178986e+02 1.6039178986e+02 0.0000000000e+00 0.0000e+00 1.0000e+00
        2 -1    0    0  502    0 +0.0000000000e+00 -0.0000000000e+00 -3.7267800317e+03 3.7267800317e+03 0.0000000000e+00 0.0000e+00 -1.0000e+00
  5000001  2    1    2    0    0 -1.1248624627e+02 -2.5239641409e+02 -3.4197241123e+03 3.5743340484e+03 1.0024937803e+03 0.0000e+00 0.0000e+00
  5000521  1    3    3    0    0 +2.0411851388e+02 +3.2347989195e+02 -1.2519247296e+03 1.3090909582e+03 1.0000000000e+01 0.0000e+00 1.0000e+00
 -5000521  1    3    3    0    0 -3.1660476015e+02 -5.7587630604e+02 -2.1677993827e+03 2.2652430902e+03 1.0000000000e+01 0.0000e+00 -1.0000e+00
       21  1    1    2  502  501 +1.1248624627e+02 +2.5239641409e+02 -1.4666412953e+02 3.1283777319e+02 0.0000000000e+00 0.0000e+00 1.0000e+00
<mgrwt>
<rscale>  1 0.10398802E+04</rscale>
<asrwt>0</asrwt>
<pdfrwt beam="1">  1        2 0.57335072E+00 0.10398802E+04</pdfrwt>
<pdfrwt beam="2">  1       -2 0.24675662E-01 0.10398802E+04</pdfrwt>
<totfact> 0.84939953E+00</totfact>
</mgrwt>
</event>
<event>
 6      1 +3.0741590e+01 1.01685700e+03 7.81860800e-03 9.29024700e-02
        1 -1    0    0  502    0 +0.0000000000e+00 +0.0000000000e+00 +6.9124770816e+02 6.9124770816e+02 0.0000000000e+00 0.0000e+00 1.0000e+00
       -1 -1    0    0    0  501 -0.0000000000e+00 -0.0000000000e+00 -6.5255722366e+02 6.5255722366e+02 0.0000000000e+00 0.0000e+00 -1.0000e+00
  5000001  2    1    2    0    0 +9.6225698968e+01 +1.4577326263e+02 +2.7176241936e+02 1.0525460160e+03 1.0017430179e+03 0.0000e+00 0.0000e+00
  5000521  1    3    3    0    0 +5.1831242790e+02 +2.5559070013e+02 +1.9210113577e+02 6.0907899756e+02 1.0000000000e+01 0.0000e+00 1.0000e+00
 -5000521  1    3    3    0    0 -4.2208672893e+02 -1.0981743750e+02 +7.9661283591e+01 4.4346701841e+02 1.0000000000e+01 0.0000e+00 -1.0000e+00
       21  1    1    2  502  501 -9.6225698968e+01 -1.4577326263e+02 -2.3307193486e+02 2.9125891584e+02 0.0000000000e+00 0.0000e+00 -1.0000e+00
<mgrwt>
<rscale>  1 0.10168571E+04</rscale>
<asrwt>0</asrwt>
<pdfrwt beam="1">  1        1 0.10634580E+00 0.10168571E+04</pdfrwt>
<pdfrwt beam="2">  1       -1 0.10039342E+00 0.10168571E+04</pdfrwt>
<totfact> 0.26262566E+01</totfact>
</mgrwt>
</event>
<event>
 6      1 +3.0741590e+01 9.88869300e+02 7.81860800e-03 9.32083800e-02
       21 -1    0    0  501  502 +0.0000000000e+00 +0.0000000000e+00 +2.2365310377e+02 2.2365310377e+02 0.0000000000e+00 0.0000e+00 1.0000e+00
        1 -1    0    0  502    0 -0.0000000000e+00 -0.0000000000e+00 -1.2154520493e+03 1.2154520493e+03 0.0000000000e+00 0.0000e+00 -1.0000e+00
  5000001  2    1    2    0    0 +3.8834478690e+00 -3.3246375378e+01 -9.9813374660e+02 1.4050385661e+03 9.8830258189e+02 0.0000e+00 0.0000e+00
  5000521  1    3    3    0    0 -9.2407308187e+01 -4.6687305528e+02 -2.5712821295e+02 5.4104018173e+02 1.0000000000e+01 0.0000e+00 1.0000e+00
 -5000521  1    3    3    0    0 +9.6290756056e+01 +4.3362667990e+02 -7.4100553365e+02 8.6399838433e+02 1.0000000000e+01 0.0000e+00 -1.0000e+00
        1  1    1    2  501    0 -3.8834478690e+00 +3.3246375378e+01 +6.3348011054e+00 3.4066586976e+01 0.0000000000e+00 0.0000e+00 -1.0000e+00
<mgrwt>
<rscale>  1 0.98886925E+03</rscale>
<asrwt>0</asrwt>
<pdfrwt beam="1">  1       21 0.34408169E-01 0.98886925E+03</pdfrwt>
<pdfrwt beam="2">  1        1 0.18699263E+00 0.98886925E+03</pdfrwt>
<totfact> 0.85104668E+02</totfact>
</mgrwt>
</event>
<event>
 6      1 +3.0741590e+01 1.02460300e+03 7.81860800e-03 9.28196400e-02
        2 -1    0    0  502    0 -0.0000000000e+00 +0.0000000000e+00 +2.9965066198e+02 2.9965066198e+02 0.0000000000e+00 0.0000e+00 -1.0000e+00
       21 -1    0    0  501  502 +0.0000000000e+00 -0.0000000000e+00 -1.3415527840e+03 1.3415527840e+03 0.0000000000e+00 0.0000e+00 1.0000e+00
  5000001  2    1    2    0    0 +2.1874130590e+02 +1.0621130625e+02 -8.5591394942e+02 1.3350658938e+03 9.9533092566e+02 0.0000e+00 0.0000e+00
  5000521  1    3    3    0    0 -7.3112438226e+01 +1.8948806912e+02 -9.8451060630e+02 1.0052921421e+03 1.0000000000e+01 0.0000e+00 1.0000e+00
 -5000521  1    3    3    0    0 +2.9185374413e+02 -8.3276762866e+01 +1.2859665688e+02 3.2977375177e+02 1.0000000000e+01 0.0000e+00 -1.0000e+00
        2  1    1    2  501    0 -2.1874130590e+02 -1.0621130625e+02 -1.8598817260e+02 3.0613755214e+02 0.0000000000e+00 0.0000e+00 -1.0000e+00
<mgrwt>
<rscale>  1 0.10246035E+04</rscale>
<asrwt>0</asrwt>
<pdfrwt beam="1">  1       21 0.20639274E+00 0.10246035E+04</pdfrwt>
<pdfrwt beam="2">  1        2 0.46100101E-01 0.10246035E+04</pdfrwt>
<totfact> 0.12553217E+02</totfact>
</mgrwt>
</event>
<event>
 6      1 +3.0741590e+01 1.00196900e+03 7.81860800e-03 9.30638700e-02
        1 -1    0    0  502    0 +0.0000000000e+00 +0.0000000000e+00 +7.9170509621e+02 7.9170509621e+02 0.0000000000e+00 0.0000e+00 -1.0000e+00
       -1 -1    0    0    0  501 -0.0000000000e+00 -0.0000000000e+00 -3.7812824537e+02 3.7812824537e+02 0.0000000000e+00 0.0000e+00 1.0000e+00
  5000001  2    1    2    0    0 +5.6722257449e+00 +2.3021331485e+01 +4.7141230930e+02 1.1073265731e+03 1.0016887832e+03 0.0000e+00 0.0000e+00
  5000521  1    3    3    0    0 -3.6692421419e+00 +2.4448954032e+02 +7.2804183553e+02 7.6807129418e+02 1.0000000000e+01 0.0000e+00 -1.0000e+00
 -5000521  1    3    3    0    0 +9.3414678868e+00 -2.2146820884e+02 -2.5662952623e+02 3.3925527893e+02 1.0000000000e+01 0.0000e+00 1.0000e+00
       21  1    1    2  502  501 -5.6722257449e+00 -2.3021331485e+01 -5.7835458462e+01 6.2506768463e+01 0.0000000000e+00 0.0000e+00 1.0000e+00
<mgrwt>
<rscale>  1 0.10019693E+04</rscale>
<asrwt>0</asrwt>
<pdfrwt beam="1">  1        1 0.12180078E+00 0.10019693E+04</pdfrwt>
<pdfrwt beam="2">  1       -1 0.58173576E-01 0.10019693E+04</pdfrwt>
<totfact> 0.67474236E+01</totfact>
</mgrwt>
</event>
<event>
 6      1 +3.0741590e+01 9.97523000e+02 7.81860800e-03 9.31126600e-02
        2 -1    0    0  502    0 +0.0000000000e+00 +0.0000000000e+00 +1.0614115307e+03 1.0614115307e+03 0.0000000000e+00 0.0000e+00 1.0000e+00
       -2 -1    0    0    0  501 -0.0000000000e+00 -0.0000000000e+00 -2.8499203698e+02 2.8499203698e+02 0.0000000000e+00 0.0000e+00 -1.0000e+00
  5000001  2    1    2    0    0 -1.4835306633e+01 +4.2431228986e+01 +5.9938165785e+02 1.1637484532e+03 9.9650970643e+02 0.0000e+00 0.0000e+00
  5000521  1    3    3    0    0 +1.1458368654e+02 -4.0690483771e+01 +8.5586240130e+02 8.6451465381e+02 1.0000000000e+01 0.0000e+00 1.0000e+00
 -5000521  1    3    3    0    0 -1.2941899318e+02 +8.3121712757e+01 -2.5648074345e+02 2.9923379938e+02 1.0000000000e+01 0.0000e+00 -1.0000e+00
       21  1    1    2  502  501 +1.4835306633e+01 -4.2431228986e+01 +1.7703783589e+02 1.8265511450e+02 0.0000000000e+00 0.0000e+00 -1.0000e+00
<mgrwt>
<rscale>  1 0.99752298E+03</rscale>
<asrwt>0</asrwt>
<pdfrwt beam="1">  1        2 0.16329408E+00 0.99752298E+03</pdfrwt>
<pdfrwt beam="2">  1       -2 0.43844929E-01 0.99752298E+03</pdfrwt>
<totfact> 0.11331487E+02</totfact>
</mgrwt>
</event>
<event>
 6      1 +3.0741590e+01 1.00213600e+03 7.81860800e-03 9.30620500e-02
       -2 -1    0    0    0  501 -0.0000000000e+00 +0.0000000000e+00 +6.0039524392e+02 6.0039524392e+02 0.0000000000e+00 0.0000e+00 1.0000e+00
        2 -1    0    0  502    0 +0.0000000000e+00 -0.0000000000e+00 -4.4619525891e+02 4.4619525891e+02 0.0000000000e+00 0.0000e+00 -1.0000e+00
  5000001  2    1    2    0    0 -2.6217759974e+01 +1.8205941221e+01 +1.4082358079e+02 1.0119818995e+03 1.0016273043e+03 0.0000e+00 0.0000e+00
  5000521  1    3    3    0    0 +1.4627072033e+01 -2.6428940469e+02 +4.9233443678e+02 5.5906711432e+02 1.0000000000e+01 0.0000e+00 1.0000e+00
 -5000521  1    3    3    0    0 -4.0844832007e+01 +2.8249534592e+02 -3.5151085599e+02 4.5291478519e+02 1.0000000000e+01 0.0000e+00 -1.0000e+00
       21  1    1    2  502  501 +2.6217759974e+01 -1.8205941221e+01 +1.3376404221e+01 3.4608603319e+01 0.0000000000e+00 0.0000e+00 1.0000e+00
<mgrwt>
<rscale>  1 0.10021358E+04</rscale>
<asrwt>0</asrwt>
<pdfrwt beam="1">  1        2 0.68645425E-01 0.10021358E+04</pdfrwt>
<pdfrwt beam="2">  1       -2 0.92368498E-01 0.10021358E+04</pdfrwt>
<totfact> 0.69772193E+01</totfact>
</mgrwt>
</event>
<event>
 6      1 +3.0741590e+01 1.00022700e+03 7.81860800e-03 9.30829500e-02
       -1 -1    0    0    0  501 -0.0000000000e+00 +0.0000000000e+00 +1.6766345251e+02 1.6766345251e+02 0.0000000000e+00 0.0000e+00 1.0000e+00
        1 -1    0    0  502    0 +0.0000000000e+00 -0.0000000000e+00 -1.6218031980e+03 1.6218031980e+03 0.0000000000e+00 0.0000e+00 -1.0000e+00
  5000001  2    1    2    0    0 +7.0381628056e+00 +1.9671612883e+01 -1.3329892958e+03 1.6665278870e+03 1.0000091138e+03 0.0000e+00 0.0000e+00
  5000521  1    3    3    0    0 +2.9955834333e+01 -4.8875253376e+02 -6.9800352516e+02 8.5269297663e+02 1.0000000000e+01 0.0000e+00 1.0000e+00
 -5000521  1    3    3    0    0 -2.2917671527e+01 +5.0842414664e+02 -6.3498577059e+02 8.1383491042e+02 1.0000000000e+01 0.0000e+00 -1.0000e+00
       21  1    1    2  502  501 -7.0381628056e+00 -1.9671612883e+01 -1.2115044969e+02 1.2293876341e+02 0.0000000000e+00 0.0000e+00 -1.0000e+00
<mgrwt>
<rscale>  1 0.10002273E+04</rscale>
<asrwt>0</asrwt>
<pdfrwt beam="1">  1        1 0.24950819E+00 0.10002273E+04</pdfrwt>
<pdfrwt beam="2">  1       -1 0.25794376E-01 0.10002273E+04</pdfrwt>
<totfact> 0.71823193E+01</totfact>
</mgrwt>
</event>
<event>
 6      1 +3.0741590e+01 1.00280000e+03 7.81860800e-03 9.30547900e-02
       21 -1    0    0  501  502 +0.0000000000e+00 +0.0000000000e+00 +5.4596798967e+02 5.4596798967e+02 0.0000000000e+00 0.0000e+00 1.0000e+00
        2 -1    0    0  502    0 -0.0000000000e+00 -0.0000000000e+00 -6.6658234895e+02 6.6658234895e+02 0.0000000000e+00 0.0000e+00 -1.0000e+00
  5000001  2    1    2    0    0 +1.1007266240e+02 -9.5427147761e-01 -2.5901638206e+02 1.0357113679e+03 9.9674051281e+02 0.0000e+00 0.0000e+00
  5000521  1    3    3    0    0 -3.1512585778e+02 +2.6230588422e+02 +9.7374824835e+01 4.2153355697e+02 1.0000000000e+01 0.0000e+00 1.0000e+00
 -5000521  1    3    3    0    0 +4.2519852018e+02 -2.6326015570e+02 -3.5639120689e+02 6.1417781098e+02 1.0000000000e+01 0.0000e+00 -1.0000e+00
        2  1    1    2  501    0 -1.1007266240e+02 +9.5427147761e-01 +1.3840202277e+02 1.7683897068e+02 0.0000000000e+00 0.0000e+00 -1.0000e+00
<mgrwt>
<rscale>  1 0.10028004E+04</rscale>
<asrwt>0</asrwt>
<pdfrwt beam="1">  1       21 0.83995075E-01 0.10028004E+04</pdfrwt>
<pdfrwt beam="2">  1        2 0.10255113E+00 0.10028004E+04</pdfrwt>
<totfact> 0.56896019E+02</totfact>
</mgrwt>
</event>
<event>
 6      1 +3.0741590e+01 1.00976900e+03 7.81860800e-03 9.29789500e-02
        1 -1    0    0  502    0 +0.0000000000e+00 +0.0000000000e+00 +4.5651518615e+02 4.5651518615e+02 0.0000000000e+00 0.0000e+00 1.0000e+00
       -1 -1    0    0    0  501 -0.0000000000e+00 -0.0000000000e+00 -6.8837041346e+02 6.8837041346e+02 0.0000000000e+00 0.0000e+00 -1.0000e+00
  5000001  2    1    2    0    0 -1.9748538510e+01 +1.1463474505e+01 -3.1571388637e+02 1.0579736285e+03 1.0095105371e+03 0.0000e+00 0.0000e+00
  5000521  1    3    3    0    0 -5.1760924476e+01 +2.6637923411e+02 -6.0968828486e+02 6.6742557215e+02 1.0000000000e+01 0.0000e+00 -1.0000e+00
 -5000521  1    3    3    0    0 +3.2012385966e+01 -2.5491575960e+02 +2.9397439849e+02 3.9054805635e+02 1.0000000000e+01 0.0000e+00 1.0000e+00
       21  1    1    2  502  501 +1.9748538510e+01 -1.1463474505e+01 +8.3858659065e+01 8.6911971104e+01 0.0000000000e+00 0.0000e+00 1.0000e+00
<mgrwt>
<rscale>  1 0.10097688E+04</rscale>
<asrwt>0</asrwt>
<pdfrwt beam="1">  1        1 0.70233106E-01 0.10097688E+04</pdfrwt>
<pdfrwt beam="2">  1       -1 0.10590314E+00 0.10097688E+04</pdfrwt>
<totfact> 0.42003118E+01</totfact>
</mgrwt>
</event>
<event>
 6      1 +3.0741590e+01 1.00051900e+03 7.81860800e-03 9.30797600e-02
        2 -1    0    0  502    0 +0.0000000000e+00 +0.0000000000e+00 +2.2563139455e+02 2.2563139455e+02 0.0000000000e+00 0.0000e+00 1.0000e+00
       -2 -1    0    0    0  501 -0.0000000000e+00 -0.0000000000e+00 -1.2458070704e+03 1.2458070704e+03 0.0000000000e+00 0.0000e+00 -1.0000e+00
  5000001  2    1    2    0    0 +4.8365013760e+01 -1.6000346544e+01 -9.2070787998e+02 1.3596841448e+03 9.9922109058e+02 0.0000e+00 0.0000e+00
  5000521  1    3    3    0    0 +2.3514742036e+02 +1.1226935570e+02 +1.2534404073e+02 2.8932653884e+02 1.0000000000e+01 0.0000e+00 1.0000e+00
 -5000521  1    3    3    0    0 -1.8678240660e+02 -1.2826970225e+02 -1.0460519207e+03 1.0703576060e+03 1.0000000000e+01 0.0000e+00 -1.0000e+00
       21  1    1    2  502  501 -4.8365013760e+01 +1.6000346544e+01 -9.9467795886e+01 1.1175432011e+02 0.0000000000e+00 0.0000e+00 -1.0000e+00
<mgrwt>
<rscale>  1 0.10005189E+04</rscale>
<asrwt>0</asrwt>
<pdfrwt beam="1">  1        2 0.34712521E-01 0.10005189E+04</pdfrwt>
<pdfrwt beam="2">  1       -2 0.19166263E+00 0.10005189E+04</pdfrwt>
<totfact> 0.22776431E+01</totfact>
</mgrwt>
</event>
<event>
 6      1 +3.0741590e+01 9.98698200e+02 7.81860800e-03 9.30997400e-02
        2 -1    0    0  502    0 +0.0000000000e+00 +0.0000000000e+00 +1.6753397345e+03 1.6753397345e+03 0.0000000000e+00 0.0000e+00 -1.0000e+00
       -2 -1    0    0    0  501 -0.0000000000e+00 -0.0000000000e+00 -5.9144287045e+02 5.9144287045e+02 0.0000000000e+00 0.0000e+00 1.0000e+00
  5000001  2    1    2    0    0 +4.1703784210e+01 -1.8202961408e+01 -1.6914005744e+02 1.0129197416e+03 9.9766100982e+02 0.0000e+00 0.0000e+00
  5000521  1    3    3    0    0 -1.7896027506e+02 -2.0727096564e+02 +3.3386953725e+02 4.3192233231e+02 1.0000000000e+01 0.0000e+00 1.0000e+00
 -5000521  1    3    3    0    0 +2.2066405927e+02 +1.8906800423e+02 -5.0300959469e+02 5.8099740931e+02 1.0000000000e+01 0.0000e+00 -1.0000e+00
       21  1    1    2  502  501 -4.1703784210e+01 +1.8202961408e+01 +1.2530369215e+03 1.2538628634e+03 0.0000000000e+00 0.0000e+00 -1.0000e+00
<mgrwt>
<rscale>  1 0.99869817E+03</rscale>
<asrwt>0</asrwt>
<pdfrwt beam="1">  1        2 0.25774457E+00 0.99869817E+03</pdfrwt>
<pdfrwt beam="2">  1       -2 0.90991211E-01 0.99869817E+03</pdfrwt>
<totfact> 0.10405913E+01</totfact>
</mgrwt>
</event>
<event>
 6      1 +3.0741590e+01 1.00656600e+03 7.81860800e-03 9.30137200e-02
        1 -1    0    0  502    0 -0.0000000000e+00 +0.0000000000e+00 +1.7196742488e+03 1.7196742488e+03 0.0000000000e+00 0.0000e+00 -1.0000e+00
       21 -1    0    0  501  502 +0.0000000000e+00 -0.0000000000e+00 -2.3989768627e+02 2.3989768627e+02 0.0000000000e+00 0.0000e+00 1.0000e+00
  5000001  2    1    2    0    0 +3.6489937707e+01 +3.2919449837e+01 +1.5652584095e+03 1.8609699477e+03 1.0053656310e+03 0.0000e+00 0.0000e+00
  5000521  1    3    3    0    0 -3.7332057367e+02 -2.5481261210e+01 +1.8038638700e+02 4.1551990808e+02 1.0000000000e+01 0.0000e+00 1.0000e+00
 -5000521  1    3    3    0    0 +4.0981051138e+02 +5.8400711047e+01 +1.3848720225e+03 1.4454500396e+03 1.0000000000e+01 0.0000e+00 -1.0000e+00
        1  1    1    2  501    0 -3.6489937707e+01 -3.2919449837e+01 -8.5481847033e+01 9.8601987320e+01 0.0000000000e+00 0.0000e+00 -1.0000e+00
<mgrwt>
<rscale>  1 0.10065661E+04</rscale>
<asrwt>0</asrwt>
<pdfrwt beam="1">  1       21 0.36907337E-01 0.10065661E+04</pdfrwt>
<pdfrwt beam="2">  1        1 0.26456526E+00 0.10065661E+04</pdfrwt>
<totfact> 0.32757322E+02</totfact>
</mgrwt>
</event>
<event>
 6      1 +3.0741590e+01 9.55235000e+02 7.81860800e-03 9.35905200e-02
        1 -1    0    0  502    0 +0.0000000000e+00 +0.0000000000e+00 +4.5407999045e+02 4.5407999045e+02 0.0000000000e+00 0.0000e+00 1.0000e+00
       -1 -1    0    0    0  501 -0.0000000000e+00 -0.0000000000e+00 -5.3004808746e+02 5.3004808746e+02 0.0000000000e+00 0.0000e+00 -1.0000e+00
  5000001  2    1    2    0    0 +4.4401975905e+00 -2.2455128398e+01 -6.1851892825e+01 9.5723541411e+02 9.5496074957e+02 0.0000e+00 0.0000e+00
  5000521  1    3    3    0    0 -1.5390419718e+02 -2.8001548886e+02 +3.3182005803e+02 4.6075994490e+02 1.0000000000e+01 0.0000e+00 1.0000e+00
 -5000521  1    3    3    0    0 +1.5834439478e+02 +2.5756036046e+02 -3.9367195086e+02 4.9647546921e+02 1.0000000000e+01 0.0000e+00 -1.0000e+00
       21  1    1    2  502  501 -4.4401975905e+00 +2.2455128398e+01 -1.4116204188e+01 2.6892663808e+01 0.0000000000e+00 0.0000e+00 1.0000e+00
<mgrwt>
<rscale>  1 0.95523504E+03</rscale>
<asrwt>0</asrwt>
<pdfrwt beam="1">  1        1 0.69858460E-01 0.95523504E+03</pdfrwt>
<pdfrwt beam="2">  1       -1 0.81545859E-01 0.95523504E+03</pdfrwt>
<totfact> 0.76171829E+01</totfact>
</mgrwt>
</event>
<event>
 6      1 +3.0741590e+01 1.00226300e+03 7.81860800e-03 9.30606600e-02
       21 -1    0    0  501  502 +0.0000000000e+00 +0.0000000000e+00 +7.6160963452e+02 7.6160963452e+02 0.0000000000e+00 0.0000e+00 1.0000e+00
        2 -1    0    0  502    0 -0.0000000000e+00 -0.0000000000e+00 -4.0525861836e+02 4.0525861836e+02 0.0000000000e+00 0.0000e+00 -1.0000e+00
  5000001  2    1    2    0    0 -7.8952562729e+00 +6.4599234875e+01 +4.0964990850e+02 1.0827482901e+03 1.0001476970e+03 0.0000e+00 0.0000e+00
  5000521  1    3    3    0    0 +2.3245814083e+02 +7.2971257574e+01 +6.7903354388e+02 7.2149022543e+02 1.0000000000e+01 0.0000e+00 1.0000e+00
 -5000521  1    3    3    0    0 -2.4035339710e+02 -8.3720226991e+00 -2.6938363538e+02 3.6125806465e+02 1.0000000000e+01 0.0000e+00 -1.0000e+00
        2  1    1    2  501    0 +7.8952562729e+00 -6.4599234875e+01 -5.3298892342e+01 8.4119962809e+01 0.0000000000e+00 0.0000e+00 -1.0000e+00
<mgrwt>
<rscale>  1 0.10022628E+04</rscale>
<asrwt>0</asrwt>
<pdfrwt beam="1">  1       21 0.11717071E+00 0.10022628E+04</pdfrwt>
<pdfrwt beam="2">  1        2 0.62347480E-01 0.10022628E+04</pdfrwt>
<totfact> 0.45043399E+02</totfact>
</mgrwt>
</event>
<event>
 6      1 +3.0741590e+01 1.13780600e+03 7.81860800e-03 9.16910700e-02
        2 -1    0    0  502    0 -0.0000000000e+00 +0.0000000000e+00 +4.0501233745e+03 4.0501233745e+03 0.0000000000e+00 0.0000e+00 1.0000e+00
       21 -1    0    0  501  502 +0.0000000000e+00 -0.0000000000e+00 -2.1319021875e+02 2.1319021875e+02 0.0000000000e+00 0.0000e+00 -1.0000e+00
  5000001  2    1    2    0    0 +1.4845451021e+02 +4.9620666222e+02 +1.5759462498e+03 1.9437615714e+03 1.0130857175e+03 0.0000e+00 0.0000e+00
  5000521  1    3    3    0    0 -2.4779419041e+02 -1.5246637710e+02 +1.4917830474e+02 3.2711179060e+02 1.0000000000e+01 0.0000e+00 -1.0000e+00
 -5000521  1    3    3    0    0 +3.9624870062e+02 +6.4867303932e+02 +1.4267679451e+03 1.6166497808e+03 1.0000000000e+01 0.0000e+00 1.0000e+00
        2  1    1    2  501    0 -1.4845451021e+02 -4.9620666222e+02 +2.2609869059e+03 2.3195520218e+03 0.0000000000e+00 0.0000e+00 1.0000e+00
<mgrwt>
<rscale>  1 0.11378060E+04</rscale>
<asrwt>0</asrwt>
<pdfrwt beam="1">  1       21 0.32798498E-01 0.11378060E+04</pdfrwt>
<pdfrwt beam="2">  1        2 0.62309585E+00 0.11378060E+04</pdfrwt>
<totfact> 0.32774221E+01</totfact>
</mgrwt>
</event>
<event>
 6      1 +3.0741590e+01 1.00327500e+03 7.81860800e-03 9.30496000e-02
       -1 -1    0    0    0  501 -0.0000000000e+00 +0.0000000000e+00 +2.2093093901e+02 2.2093093901e+02 0.0000000000e+00 0.0000e+00 1.0000e+00
        1 -1    0    0  502    0 +0.0000000000e+00 -0.0000000000e+00 -1.2269972272e+03 1.2269972272e+03 0.0000000000e+00 0.0000e+00 -1.0000e+00
  5000001  2    1    2    0    0 +3.4658055045e+01 +1.4959361736e+01 -9.7568340521e+02 1.3994711455e+03 1.0025649188e+03 0.0000e+00 0.0000e+00
  5000521  1    3    3    0    0 +3.3512296904e+02 +3.9390774012e+02 -5.5131559513e+02 7.5598915173e+02 1.0000000000e+01 0.0000e+00 -1.0000e+00
 -5000521  1    3    3    0    0 -3.0046491399e+02 -3.7894837839e+02 -4.2436781008e+02 6.4348199373e+02 1.0000000000e+01 0.0000e+00 1.0000e+00
       21  1    1    2  502  501 -3.4658055045e+01 -1.4959361736e+01 -3.0382883022e+01 4.8457020789e+01 0.0000000000e+00 0.0000e+00 -1.0000e+00
<mgrwt>
<rscale>  1 0.10032753E+04</rscale>
<asrwt>0</asrwt>
<pdfrwt beam="1">  1        1 0.18876880E+00 0.10032753E+04</pdfrwt>
<pdfrwt beam="2">  1       -1 0.33989376E-01 0.10032753E+04</pdfrwt>
<totfact> 0.83658168E+01</totfact>
</mgrwt>
</event>
<event>
 6      1 +3.0741590e+01 9.97056800e+02 7.81860800e-03 9.31177900e-02
       -2 -1    0    0    0  501 -0.0000000000e+00 +0.0000000000e+00 +1.7347491518e+02 1.7347491518e+02 0.0000000000e+00 0.0000e+00 1.0000e+00
        2 -1    0    0  502    0 +0.0000000000e+00 -0.0000000000e+00 -1.5504250053e+03 1.5504250053e+03 0.0000000000e+00 0.0000e+00 -1.0000e+00
  5000001  2    1    2    0    0 -2.0174278351e+01 -3.7502211138e+00 -1.3806677130e+03 1.7030459907e+03 9.9684564861e+02 0.0000e+00 0.0000e+00
  5000521  1    3    3    0    0 -7.7393496376e+01 -2.4449780369e+02 +4.1056735124e+01 2.5991264838e+02 1.0000000000e+01 0.0000e+00 1.0000e+00
 -5000521  1    3    3    0    0 +5.7219218025e+01 +2.4074758257e+02 -1.4217244481e+03 1.4431333423e+03 1.0000000000e+01 0.0000e+00 -1.0000e+00
       21  1    1    2  502  501 +2.0174278351e+01 +3.7502211138e+00 +3.7176228858e+00 2.0853929733e+01 0.0000000000e+00 0.0000e+00 -1.0000e+00
<mgrwt>
<rscale>  1 0.99705683E+03</rscale>
<asrwt>0</asrwt>
<pdfrwt beam="1">  1        2 0.23852692E+00 0.99705683E+03</pdfrwt>
<pdfrwt beam="2">  1       -2 0.26688449E-01 0.99705683E+03</pdfrwt>
<totfact> 0.15112491E+02</totfact>
</mgrwt>
</event>
<event>
 6      1 +3.0741590e+01 9.76078100e+02 7.81860800e-03 9.33517800e-02
       -1 -1    0    0    0  501 -0.0000000000e+00 +0.0000000000e+00 +2.5930549019e+02 2.5930549019e+02 0.0000000000e+00 0.0000e+00 1.0000e+00
        1 -1    0    0  502    0 +0.0000000000e+00 -0.0000000000e+00 -1.0698511801e+03 1.0698511801e+03 0.0000000000e+00 0.0000e+00 -1.0000e+00
  5000001  2    1    2    0    0 -3.0641980460e+01 +1.7827029539e+00 -8.3914535845e+02 1.2872037201e+03 9.7559539531e+02 0.0000e+00 0.0000e+00
  5000521  1    3    3    0    0 +6.2181274313e+01 +2.8779278951e+02 -9.2788267073e+02 9.7352835152e+02 1.0000000000e+01 0.0000e+00 -1.0000e+00
 -5000521  1    3    3    0    0 -9.2823254773e+01 -2.8601008656e+02 +8.8737312287e+01 3.1367536855e+02 1.0000000000e+01 0.0000e+00 1.0000e+00
       21  1    1    2  502  501 +3.0641980460e+01 -1.7827029539e+00 +2.8599668511e+01 4.1952950257e+01 0.0000000000e+00 0.0000e+00 -1.0000e+00
<mgrwt>
<rscale>  1 0.97607811E+03</rscale>
<asrwt>0</asrwt>
<pdfrwt beam="1">  1        1 0.16459249E+00 0.97607811E+03</pdfrwt>
<pdfrwt beam="2">  1       -1 0.39893153E-01 0.97607811E+03</pdfrwt>
<totfact> 0.82088098E+01</totfact>
</mgrwt>
</event>
<event>
 6      1 +3.0741590e+01 1.01177900e+03 7.81860800e-03 9.29571900e-02
       -2 -1    0    0    0  501 -0.0000000000e+00 +0.0000000000e+00 +1.0856927999e+02 1.0856927999e+02 0.0000000000e+00 0.0000e+00 -1.0000e+00
        2 -1    0    0  502    0 +0.0000000000e+00 -0.0000000000e+00 -2.8467537171e+03 2.8467537171e+03 0.0000000000e+00 0.0000e+00 1.0000e+00
  5000001  2    1    2    0    0 +3.8552304803e+01 +2.8436260308e+01 -2.7232696680e+03 2.9051497827e+03 1.0106446824e+03 0.0000e+00 0.0000e+00
  5000521  1    3    3    0    0 -1.3956804514e+02 -4.5603284343e+02 -1.0335483777e+03 1.1383178127e+03 1.0000000000e+01 0.0000e+00 -1.0000e+00
 -5000521  1    3    3    0    0 +1.7812034994e+02 +4.8446910374e+02 -1.6897212903e+03 1.7668319701e+03 1.0000000000e+01 0.0000e+00 1.0000e+00
       21  1    1    2  502  501 -3.8552304803e+01 -2.8436260308e+01 -1.4914769102e+01 5.0173214401e+01 0.0000000000e+00 0.0000e+00 -1.0000e+00
<mgrwt>
<rscale>  1 0.10117794E+04</rscale>
<asrwt>0</asrwt>
<pdfrwt beam="1">  1        2 0.43796213E+00 0.10117794E+04</pdfrwt>
<pdfrwt beam="2">  1       -2 0.16702966E-01 0.10117794E+04</pdfrwt>
<totfact> 0.64359118E+01</totfact>
</mgrwt>
</event>
<event>
 6      1 +3.0741590e+01 1.04382500e+03 7.81860800e-03 9.26174200e-02
       -2 -1    0    0    0  501 -0.0000000000e+00 +0.0000000000e+00 +4.9632309594e+02 4.9632309594e+02 0.0000000000e+00 0.0000e+00 -1.0000e+00
        2 -1    0    0  502    0 +0.0000000000e+00 -0.0000000000e+00 -1.0309971332e+03 1.0309971332e+03 0.0000000000e+00 0.0000e+00 1.0000e+00
  5000001  2    1    2    0    0 -2.0464871584e+02 +2.0559745242e+02 -6.3330779997e+02 1.2209217492e+03 1.0027062076e+03 0.0000e+00 0.0000e+00
  5000521  1    3    3    0    0 -3.3932814627e+02 +3.4766327827e+02 -8.1810586368e+02 9.5153063539e+02 1.0000000000e+01 0.0000e+00 1.0000e+00
 -5000521  1    3    3    0    0 +1.3467943042e+02 -1.4206582585e+02 +1.8479806371e+02 2.6939111382e+02 1.0000000000e+01 0.0000e+00 -1.0000e+00
       21  1    1    2  502  501 +2.0464871584e+02 -2.0559745242e+02 +9.8633762732e+01 3.0639847990e+02 0.0000000000e+00 0.0000e+00 -1.0000e+00
<mgrwt>
<rscale>  1 0.10438252E+04</rscale>
<asrwt>0</asrwt>
<pdfrwt beam="1">  1        2 0.15861494E+00 0.10438252E+04</pdfrwt>
<pdfrwt beam="2">  1       -2 0.76357400E-01 0.10438252E+04</pdfrwt>
<totfact> 0.36665170E+01</totfact>
</mgrwt>
</event>
<event>
 6      1 +3.0741590e+01 1.00749600e+03 7.81860800e-03 9.30036100e-02
        1 -1    0    0  502    0 +0.0000000000e+00 +0.0000000000e+00 +3.2490675739e+02 3.2490675739e+02 0.0000000000e+00 0.0000e+00 1.0000e+00
       -1 -1    0    0    0  501 -0.0000000000e+00 -0.0000000000e+00 -9.3838698714e+02 9.3838698714e+02 0.0000000000e+00 0.0000e+00 -1.0000e+00
  5000001  2    1    2    0    0 -9.1831627275e+01 -3.0474396535e+01 -5.5533994355e+02 1.1504131461e+03 1.0028390785e+03 0.0000e+00 0.0000e+00
  5000521  1    3    3    0    0 -5.4300008291e+02 +4.2090249623e+01 -2.4082572929e+02 5.9558182565e+02 1.0000000000e+01 0.0000e+00 -1.0000e+00
 -5000521  1    3    3    0    0 +4.5116845563e+02 -7.2564646159e+01 -3.1451421426e+02 5.5483132050e+02 1.0000000000e+01 0.0000e+00 1.0000e+00
       21  1    1    2  502  501 +9.1831627275e+01 +3.0474396535e+01 -5.8140286194e+01 1.1288059838e+02 0.0000000000e+00 0.0000e+00 -1.0000e+00
<mgrwt>
<rscale>  1 0.10074959E+04</rscale>
<asrwt>0</asrwt>
<pdfrwt beam="1">  1        1 0.49985655E-01 0.10074959E+04</pdfrwt>
<pdfrwt beam="2">  1       -1 0.14436723E+00 0.10074959E+04</pdfrwt>
<totfact> 0.30607528E+01</totfact>
</mgrwt>
</event>
<event>
 6      1 +3.0741590e+01 1.01056500e+03 7.81860800e-03 9.29703200e-02
       21 -1    0    0  501  502 +0.0000000000e+00 +0.0000000000e+00 +1.6436131412e+03 1.6436131412e+03 0.0000000000e+00 0.0000e+00 1.0000e+00
        2 -1    0    0  502    0 -0.0000000000e+00 -0.0000000000e+00 -5.0192456592e+02 5.0192456592e+02 0.0000000000e+00 0.0000e+00 -1.0000e+00
  5000001  2    1    2    0    0 +2.1511945558e+01 -3.1037777334e+01 +7.3713439464e+00 1.0105920306e+03 1.0098593011e+03 0.0000e+00 0.0000e+00
  5000521  1    3    3    0    0 +2.0392225734e+02 -4.3690575516e+02 +2.0447604182e+02 5.2381425869e+02 1.0000000000e+01 0.0000e+00 1.0000e+00
 -5000521  1    3    3    0    0 -1.8241031178e+02 +4.0586797782e+02 -1.9710469788e+02 4.8677777187e+02 1.0000000000e+01 0.0000e+00 -1.0000e+00
        2  1    1    2  501    0 -2.1511945558e+01 +3.1037777334e+01 +1.1343172314e+03 1.1349456766e+03 0.0000000000e+00 0.0000e+00 -1.0000e+00
<mgrwt>
<rscale>  1 0.10105651E+04</rscale>
<asrwt>0</asrwt>
<pdfrwt beam="1">  1       21 0.25286356E+00 0.10105651E+04</pdfrwt>
<pdfrwt beam="2">  1        2 0.77219165E-01 0.10105651E+04</pdfrwt>
<totfact> 0.34799436E+01</totfact>
</mgrwt>
</event>
<event>
 6      1 +3.0741590e+01 1.00435600e+03 7.81860800e-03 9.30378000e-02
       21 -1    0    0  501  502 +0.0000000000e+00 +0.0000000000e+00 +1.7423156548e+02 1.7423156548e+02 0.0000000000e+00 0.0000e+00 1.0000e+00
       -2 -1    0    0    0  501 -0.0000000000e+00 -0.0000000000e+00 -1.7152948301e+03 1.7152948301e+03 0.0000000000e+00 0.0000e+00 -1.0000e+00
  5000001  2    1    2    0    0 -4.2664676261e+01 -4.1696977815e+01 -1.3089712478e+03 1.6498899692e+03 1.0025827998e+03 0.0000e+00 0.0000e+00
  5000521  1    3    3    0    0 +3.6231773237e+02 +1.9357278286e+02 -2.2376196676e+02 4.6788244166e+02 1.0000000000e+01 0.0000e+00 1.0000e+00
 -5000521  1    3    3    0    0 -4.0498240863e+02 -2.3526976067e+02 -1.0852092810e+03 1.1820075275e+03 1.0000000000e+01 0.0000e+00 -1.0000e+00
       -2  1    1    2    0  502 +4.2664676261e+01 +4.1696977815e+01 -2.3209201687e+02 2.3963642639e+02 0.0000000000e+00 0.0000e+00 -1.0000e+00
<mgrwt>
<rscale>  1 0.10043561E+04</rscale>
<asrwt>0</asrwt>
<pdfrwt beam="1">  1       21 0.26804856E-01 0.10043561E+04</pdfrwt>
<pdfrwt beam="2">  1       -2 0.26389152E+00 0.10043561E+04</pdfrwt>
<totfact> 0.53657894E+01</totfact>
</mgrwt>
</event>
<event>
 6      1 +3.0741590e+01 1.00867400e+03 7.81860800e-03 9.29908300e-02
       -1 -1    0    0    0  501 -0.0000000000e+00 +0.0000000000e+00 +4.8851942118e+02 4.8851942118e+02 0.0000000000e+00 0.0000e+00 -1.0000e+00
        1 -1    0    0  502    0 +0.0000000000e+00 -0.0000000000e+00 -7.0595428397e+02 7.0595428397e+02 0.0000000000e+00 0.0000e+00 1.0000e+00
  5000001  2    1    2    0    0 -8.1975490611e+01 +9.6491256343e+01 -2.8870971163e+02 1.0491786685e+03 1.0006957765e+03 0.0000e+00 0.0000e+00
  5000521  1    3    3    0    0 -3.3734147747e+01 -2.7448359282e+02 +2.6349480501e+02 3.8211091023e+02 1.0000000000e+01 0.0000e+00 -1.0000e+00
 -5000521  1    3    3    0    0 -4.8241342865e+01 +3.7097484916e+02 -5.5220451663e+02 6.6706775822e+02 1.0000000000e+01 0.0000e+00 1.0000e+00
       21  1    1    2  502  501 +8.1975490611e+01 -9.6491256343e+01 +7.1274848836e+01 1.4529503669e+02 0.0000000000e+00 0.0000e+00 1.0000e+00
<mgrwt>
<rscale>  1 0.10086737E+04</rscale>
<asrwt>0</asrwt>
<pdfrwt beam="1">  1        1 0.10860835E+00 0.10086737E+04</pdfrwt>
<pdfrwt beam="2">  1       -1 0.75156834E-01 0.10086737E+04</pdfrwt>
<totfact> 0.47977805E+01</totfact>
</mgrwt>
</event>
<event>
 6      1 +3.0741590e+01 1.00148700e+03 7.81860800e-03 9.30691500e-02
        1 -1    0    0  502    0 +0.0000000000e+00 +0.0000000000e+00 +4.2374934906e+02 4.2374934906e+02 0.0000000000e+00 0.0000e+00 -1.0000e+00
       -1 -1    0    0    0  501 -0.0000000000e+00 -0.0000000000e+00 -6.3596021357e+02 6.3596021357e+02 0.0000000000e+00 0.0000e+00 1.0000e+00
  5000001  2    1    2    0    0 +2.3752528801e+01 -1.8900667191e+01 -2.2552059801e+02 1.0265649273e+03 1.0010267689e+03 0.0000e+00 0.0000e+00
  5000521  1    3    3    0    0 -3.0791569450e+02 -3.6993243837e+02 +2.5701266199e+01 4.8210231172e+02 1.0000000000e+01 0.0000e+00 -1.0000e+00
 -5000521  1    3    3    0    0 +3.3166822330e+02 +3.5103177118e+02 -2.5122186420e+02 5.4446261560e+02 1.0000000000e+01 0.0000e+00 1.0000e+00
       21  1    1    2  502  501 -2.3752528801e+01 +1.8900667191e+01 +1.3309733488e+01 3.3144635316e+01 0.0000000000e+00 0.0000e+00 -1.0000e+00
<mgrwt>
<rscale>  1 0.10014869E+04</rscale>
<asrwt>0</asrwt>
<pdfrwt beam="1">  1        1 0.65192208E-01 0.10014869E+04</pdfrwt>
<pdfrwt beam="2">  1       -1 0.97840033E-01 0.10014869E+04</pdfrwt>
<totfact> 0.55805433E+01</totfact>
</mgrwt>
</event>
<event>
 6      1 +3.0741590e+01 9.76739900e+02 7.81860800e-03 9.33443000e-02
       -1 -1    0    0    0  501 -0.0000000000e+00 +0.0000000000e+00 +2.5803266074e+02 2.5803266074e+02 0.0000000000e+00 0.0000e+00 1.0000e+00
        1 -1    0    0  502    0 +0.0000000000e+00 -0.0000000000e+00 -1.0480048068e+03 1.0480048068e+03 0.0000000000e+00 0.0000e+00 -1.0000e+00
  5000001  2    1    2    0    0 -1.2258942215e+01 +5.8061208344e+01 -7.6887834606e+02 1.2430586300e+03 9.7493561890e+02 0.0000e+00 0.0000e+00
  5000521  1    3    3    0    0 -3.5284712318e+02 +3.5579411803e+02 -5.3725412245e+02 7.3473297111e+02 1.0000000000e+01 0.0000e+00 -1.0000e+00
 -5000521  1    3    3    0    0 +3.4058818096e+02 -2.9773290968e+02 -2.3162422361e+02 5.0832565889e+02 1.0000000000e+01 0.0000e+00 1.0000e+00
       21  1    1    2  502  501 +1.2258942215e+01 -5.8061208344e+01 -2.1093800005e+01 6.2978837534e+01 0.0000000000e+00 0.0000e+00 1.0000e+00
<mgrwt>
<rscale>  1 0.97673991E+03</rscale>
<asrwt>0</asrwt>
<pdfrwt beam="1">  1        1 0.16123151E+00 0.97673991E+03</pdfrwt>
<pdfrwt beam="2">  1       -1 0.39697333E-01 0.97673991E+03</pdfrwt>
<totfact> 0.86066715E+01</totfact>
</mgrwt>
</event>
<event>
 6      1 +3.0741590e+01 1.00440300e+03 7.81860800e-03 9.30372900e-02
        2 -1    0    0  502    0 -0.0000000000e+00 +0.0000000000e+00 +1.7120267057e+03 1.7120267057e+03 0.0000000000e+00 0.0000e+00 1.0000e+00
       21 -1    0    0  501  502 +0.0000000000e+00 -0.0000000000e+00 -1.7472966743e+02 1.7472966743e+02 0.0000000000e+00 0.0000e+00 -1.0000e+00
  5000001  2    1    2    0    0 +3.1513728372e+01 +7.9862017087e+01 +1.3703217947e+03 1.6990017758e+03 1.0007268141e+03 0.0000e+00 0.0000e+00
  5000521  1    3    3    0    0 -3.9212757032e+02 -7.5804904084e+01 +2.0447133088e+02 4.4879721483e+02 1.0000000000e+01 0.0000e+00 -1.0000e+00
 -5000521  1    3    3    0    0 +4.2364129870e+02 +1.5566692117e+02 +1.1658504639e+03 1.2502045610e+03 1.0000000000e+01 0.0000e+00 1.0000e+00
        2  1    1    2  501    0 -3.1513728372e+01 -7.9862017087e+01 +1.6697524356e+02 1.8775459731e+02 0.0000000000e+00 0.0000e+00 1.0000e+00
<mgrwt>
<rscale>  1 0.10044029E+04</rscale>
<asrwt>0</asrwt>
<pdfrwt beam="1">  1       21 0.26881488E-01 0.10044029E+04</pdfrwt>
<pdfrwt beam="2">  1        2 0.26338871E+00 0.10044029E+04</pdfrwt>
<totfact> 0.14770726E+03</totfact>
</mgrwt>
</event>
<event>
 6      1 +3.0741590e+01 9.99480400e+02 7.81860800e-03 9.30911500e-02
        2 -1    0    0  502    0 +0.0000000000e+00 +0.0000000000e+00 +1.5120802086e+03 1.5120802086e+03 0.0000000000e+00 0.0000e+00 -1.0000e+00
       -2 -1    0    0    0  501 -0.0000000000e+00 -0.0000000000e+00 -1.9460241807e+02 1.9460241807e+02 0.0000000000e+00 0.0000e+00 1.0000e+00
  5000001  2    1    2    0    0 +1.8680622830e+01 +2.8574424704e+01 +1.3354917833e+03 1.6680825314e+03 9.9889717430e+02 0.0000e+00 0.0000e+00
  5000521  1    3    3    0    0 -4.5262465771e+02 -1.6091284589e+02 +7.7247971977e+02 9.0971805643e+02 1.0000000000e+01 0.0000e+00 -1.0000e+00
 -5000521  1    3    3    0    0 +4.7130528054e+02 +1.8948727060e+02 +5.6301206353e+02 7.5836447495e+02 1.0000000000e+01 0.0000e+00 1.0000e+00
       21  1    1    2  502  501 -1.8680622830e+01 -2.8574424704e+01 -1.8013992813e+01 3.8600095253e+01 0.0000000000e+00 0.0000e+00 1.0000e+00
<mgrwt>
<rscale>  1 0.99948038E+03</rscale>
<asrwt>0</asrwt>
<pdfrwt beam="1">  1        2 0.23262772E+00 0.99948038E+03</pdfrwt>
<pdfrwt beam="2">  1       -2 0.29938835E-01 0.99948038E+03</pdfrwt>
<totfact> 0.12839650E+02</totfact>
</mgrwt>
</event>
<event>
 6      1 +3.0741590e+01 9.99888600e+02 7.81860800e-03 9.30866700e-02
        2 -1    0    0  502    0 -0.0000000000e+00 +0.0000000000e+00 +8.8937154661e+02 8.8937154661e+02 0.0000000000e+00 0.0000e+00 1.0000e+00
       21 -1    0    0  501  502 +0.0000000000e+00 -0.0000000000e+00 -4.2736430106e+02 4.2736430106e+02 0.0000000000e+00 0.0000e+00 -1.0000e+00
  5000001  2    1    2    0    0 -3.4530288502e+01 -6.3084791072e-01 +6.0564171602e+02 1.1690077193e+03 9.9929195979e+02 0.0000e+00 0.0000e+00
  5000521  1    3    3    0    0 -2.3514543734e+02 -2.7431940976e+02 -1.0925406386e+02 3.7759894828e+02 1.0000000000e+01 0.0000e+00 1.0000e+00
 -5000521  1    3    3    0    0 +2.0061514884e+02 +2.7368856185e+02 +7.1489577988e+02 7.9140877106e+02 1.0000000000e+01 0.0000e+00 -1.0000e+00
        2  1    1    2  501    0 +3.4530288502e+01 +6.3084791072e-01 -1.4363447047e+02 1.4772812833e+02 0.0000000000e+00 0.0000e+00 1.0000e+00
<mgrwt>
<rscale>  1 0.99988857E+03</rscale>
<asrwt>0</asrwt>
<pdfrwt beam="1">  1       21 0.65748354E-01 0.99988857E+03</pdfrwt>
<pdfrwt beam="2">  1        2 0.13682639E+00 0.99988857E+03</pdfrwt>
<totfact> 0.68626693E+02</totfact>
</mgrwt>
</event>
<event>
 6      1 +3.0741590e+01 1.00390700e+03 7.81860800e-03 9.30427000e-02
        2 -1    0    0  502    0 +0.0000000000e+00 +0.0000000000e+00 +2.6387305554e+02 2.6387305554e+02 0.0000000000e+00 0.0000e+00 -1.0000e+00
       -2 -1    0    0    0  501 -0.0000000000e+00 -0.0000000000e+00 -1.0085896636e+03 1.0085896636e+03 0.0000000000e+00 0.0000e+00 1.0000e+00
  5000001  2    1    2    0    0 -1.7998941869e+01 +1.2187704429e+01 -7.4592339591e+02 1.2506921338e+03 1.0036715594e+03 0.0000e+00 0.0000e+00
  5000521  1    3    3    0    0 +3.0069283118e+02 -1.1056345575e+02 +1.0212415985e+02 3.3640719448e+02 1.0000000000e+01 0.0000e+00 -1.0000e+00
 -5000521  1    3    3    0    0 -3.1869177305e+02 +1.2275116018e+02 -8.4804755576e+02 9.1428493937e+02 1.0000000000e+01 0.0000e+00 1.0000e+00
       21  1    1    2  502  501 +1.7998941869e+01 -1.2187704429e+01 +1.2067878315e+00 2.1770585305e+01 0.0000000000e+00 0.0000e+00 1.0000e+00
<mgrwt>
<rscale>  1 0.10039069E+04</rscale>
<asrwt>0</asrwt>
<pdfrwt beam="1">  1        2 0.40595855E-01 0.10039069E+04</pdfrwt>
<pdfrwt beam="2">  1       -2 0.15516764E+00 0.10039069E+04</pdfrwt>
<totfact> 0.34579644E+01</totfact>
</mgrwt>
</event>
<event>
 6      1 +3.0741590e+01 9.99369300e+02 7.81860800e-03 9.30923700e-02
       -2 -1    0    0    0  501 -0.0000000000e+00 +0.0000000000e+00 +9.7438477755e+01 9.7438477755e+01 0.0000000000e+00 0.0000e+00 1.0000e+00
        2 -1    0    0  502    0 +0.0000000000e+00 -0.0000000000e+00 -2.6988236955e+03 2.6988236955e+03 0.0000000000e+00 0.0000e+00 -1.0000e+00
  5000001  2    1    2    0    0 +2.4601934807e+01 -4.9069851024e+00 -2.5141796576e+03 2.7055199922e+03 9.9905442490e+02 0.0000e+00 0.0000e+00
  5000521  1    3    3    0    0 -4.1121192399e+02 -7.0630816041e+01 -5.3874834838e+02 6.8149375748e+02 1.0000000000e+01 0.0000e+00 1.0000e+00
 -5000521  1    3    3    0    0 +4.3581385879e+02 +6.5723830939e+01 -1.9754313092e+03 2.0240262347e+03 1.0000000000e+01 0.0000e+00 -1.0000e+00
       21  1    1    2  502  501 -2.4601934807e+01 +4.9069851024e+00 -8.7205560213e+01 9.0742181102e+01 0.0000000000e+00 0.0000e+00 -1.0000e+00
<mgrwt>
<rscale>  1 0.99936934E+03</rscale>
<asrwt>0</asrwt>
<pdfrwt beam="1">  1        2 0.41520361E+00 0.99936934E+03</pdfrwt>
<pdfrwt beam="2">  1       -2 0.14990536E-01 0.99936934E+03</pdfrwt>
<totfact> 0.94903310E+01</totfact>
</mgrwt>
</event>
<event>
 6      1 +3.0741590e+01 1.01225700e+03 7.81860800e-03 9.29520300e-02
        1 -1    0    0  502    0 +0.0000000000e+00 +0.0000000000e+00 +1.2237037940e+03 1.2237037940e+03 0.0000000000e+00 0.0000e+00 -1.0000e+00
       -1 -1    0    0    0  501 -0.0000000000e+00 -0.0000000000e+00 -3.1974076801e+02 3.1974076801e+02 0.0000000000e+00 0.0000e+00 1.0000e+00
  5000001  2    1    2    0    0 +9.9785973147e+01 -1.3681873372e+02 +9.2694686813e+02 1.3725502575e+03 9.9799153633e+02 0.0000e+00 0.0000e+00
  5000521  1    3    3    0    0 -3.3972235750e+02 -1.0792520169e+02 +1.1700881973e+01 3.5678570597e+02 1.0000000000e+01 0.0000e+00 1.0000e+00
 -5000521  1    3    3    0    0 +4.3950833065e+02 -2.8893532024e+01 +9.1524598615e+02 1.0157645515e+03 1.0000000000e+01 0.0000e+00 -1.0000e+00
       21  1    1    2  502  501 -9.9785973147e+01 +1.3681873372e+02 -2.2983842129e+01 1.7089430456e+02 0.0000000000e+00 0.0000e+00 1.0000e+00
<mgrwt>
<rscale>  1 0.10122567E+04</rscale>
<asrwt>0</asrwt>
<pdfrwt beam="1">  1        1 0.18826212E+00 0.10122567E+04</pdfrwt>
<pdfrwt beam="2">  1       -1 0.49190888E-01 0.10122567E+04</pdfrwt>
<totfact> 0.42619675E+01</totfact>
</mgrwt>
</event>
<event>
 6      1 +3.0741590e+01 1.01466600e+03 7.81860800e-03 9.29260400e-02
       -2 -1    0    0    0  501 -0.0000000000e+00 +0.0000000000e+00 +6.7096164959e+02 6.7096164959e+02 0.0000000000e+00 0.0000e+00 1.0000e+00
        2 -1    0    0  502    0 +0.0000000000e+00 -0.0000000000e+00 -4.5338902783e+02 4.5338902783e+02 0.0000000000e+00 0.0000e+00 -1.0000e+00
  5000001  2    1    2    0    0 +6.2681490590e+01 +3.0717760528e+01 +1.4730091329e+02 1.0253018860e+03 1.0122617489e+03 0.0000e+00 0.0000e+00
  5000521  1    3    3    0    0 +3.5492940043e+02 -1.0049295281e+02 +4.5170482311e+02 5.8327605821e+02 1.0000000000e+01 0.0000e+00 1.0000e+00
 -5000521  1    3    3    0    0 -2.9224790984e+02 +1.3121071334e+02 -3.0440390982e+02 4.4202582777e+02 1.0000000000e+01 0.0000e+00 -1.0000e+00
       21  1    1    2  502  501 -6.2681490590e+01 -3.0717760528e+01 +7.0271708476e+01 9.9048791445e+01 0.0000000000e+00 0.0000e+00 1.0000e+00
<mgrwt>
<rscale>  1 0.10146657E+04</rscale>
<asrwt>0</asrwt>
<pdfrwt beam="1">  1        2 0.69752158E-01 0.10146657E+04</pdfrwt>
<pdfrwt beam="2">  1       -2 0.10322487E+00 0.10146657E+04</pdfrwt>
<totfact> 0.52635858E+01</totfact>
</mgrwt>
</event>
<event>
 6      1 +3.0741590e+01 1.00291900e+03 7.81860800e-03 9.30534900e-02
        2 -1    0    0  502    0 +0.0000000000e+00 +0.0000000000e+00 +2.2179026653e+02 2.2179026653e+02 0.0000000000e+00 0.0000e+00 1.0000e+00
       -2 -1    0    0    0  501 -0.0000000000e+00 -0.0000000000e+00 -1.2431265722e+03 1.2431265722e+03 0.0000000000e+00 0.0000e+00 -1.0000e+00
  5000001  2    1    2    0    0 +5.7073338996e+00 -4.3230130153e+01 -9.5073343602e+02 1.3819338103e+03 1.0019708438e+03 0.0000e+00 0.0000e+00
  5000521  1    3    3    0    0 +2.3264930300e+02 +1.3932771562e+02 +1.0177741173e+02 2.8982158661e+02 1.0000000000e+01 0.0000e+00 1.0000e+00
 -5000521  1    3    3    0    0 -2.2694196910e+02 -1.8255784578e+02 -1.0525108478e+03 1.0921122236e+03 1.0000000000e+01 0.0000e+00 -1.0000e+00
       21  1    1    2  502  501 -5.7073338996e+00 +4.3230130153e+01 -7.0602869637e+01 8.2983028471e+01 0.0000000000e+00 0.0000e+00 1.0000e+00
<mgrwt>
<rscale>  1 0.10029192E+04</rscale>
<asrwt>0</asrwt>
<pdfrwt beam="1">  1        2 0.34121580E-01 0.10029192E+04</pdfrwt>
<pdfrwt beam="2">  1       -2 0.19125024E+00 0.10029192E+04</pdfrwt>
<totfact> 0.23366743E+01</totfact>
</mgrwt>
</event>
<event>
 6      1 +3.0741590e+01 9.96155300e+02 7.81860800e-03 9.31277200e-02
        1 -1    0    0  502    0 +0.0000000000e+00 +0.0000000000e+00 +2.4501679657e+03 2.4501679657e+03 0.0000000000e+00 0.0000e+00 1.0000e+00
       -1 -1    0    0    0  501 -0.0000000000e+00 -0.0000000000e+00 -1.2072054380e+02 1.2072054380e+02 0.0000000000e+00 0.0000e+00 -1.0000e+00
  5000001  2    1    2    0    0 -7.7619570964e+01 +1.0215299730e+01 +2.2430185168e+03 2.4542733056e+03 9.9307413706e+02 0.0000e+00 0.0000e+00
  5000521  1    3    3    0    0 +4.3842570905e+02 -1.2583778254e+02 +8.9906829935e+02 1.0082043725e+03 1.0000000000e+01 0.0000e+00 -1.0000e+00
 -5000521  1    3    3    0    0 -5.1604528001e+02 +1.3605308227e+02 +1.3439502175e+03 1.4460689331e+03 1.0000000000e+01 0.0000e+00 1.0000e+00
       21  1    1    2  502  501 +7.7619570964e+01 -1.0215299730e+01 +8.6428905065e+01 1.1661520388e+02 0.0000000000e+00 0.0000e+00 -1.0000e+00
<mgrwt>
<rscale>  1 0.99615531E+03</rscale>
<asrwt>0</asrwt>
<pdfrwt beam="1">  1        1 0.37694888E+00 0.99615531E+03</pdfrwt>
<pdfrwt beam="2">  1       -1 0.18572393E-01 0.99615531E+03</pdfrwt>
<totfact> 0.34445053E+01</totfact>
</mgrwt>
</event>
<event>
 6      1 +3.0741590e+01 9.88711300e+02 7.81860800e-03 9.32101300e-02
        2 -1    0    0  502    0 -0.0000000000e+00 +0.0000000000e+00 +7.5253844106e+02 7.5253844106e+02 0.0000000000e+00 0.0000e+00 1.0000e+00
       21 -1    0    0  501  502 +0.0000000000e+00 -0.0000000000e+00 -4.6989647287e+02 4.6989647287e+02 0.0000000000e+00 0.0000e+00 -1.0000e+00
  5000001  2    1    2    0    0 +9.6848789347e+01 -1.5878544502e+02 +3.0600498545e+02 1.0349826904e+03 9.7106004586e+02 0.0000e+00 0.0000e+00
  5000521  1    3    3    0    0 -1.9784694158e+02 +3.1621429582e+02 -4.3465447878e+01 3.7566492827e+02 1.0000000000e+01 0.0000e+00 1.0000e+00
 -5000521  1    3    3    0    0 +2.9469573093e+02 -4.7499974084e+02 +3.4947043333e+02 6.5931776208e+02 1.0000000000e+01 0.0000e+00 -1.0000e+00
        2  1    1    2  501    0 -9.6848789347e+01 +1.5878544502e+02 -2.3363017259e+01 1.8745222358e+02 0.0000000000e+00 0.0000e+00 1.0000e+00
<mgrwt>
<rscale>  1 0.98871134E+03</rscale>
<asrwt>0</asrwt>
<pdfrwt beam="1">  1       21 0.72291765E-01 0.98871134E+03</pdfrwt>
<pdfrwt beam="2">  1        2 0.11577514E+00 0.98871134E+03</pdfrwt>
<totfact> 0.69323353E+02</totfact>
</mgrwt>
</event>
<event>
 6      1 +3.0741590e+01 9.96499700e+02 7.81860800e-03 9.31239200e-02
        3 -1    0    0  502    0 +0.0000000000e+00 +0.0000000000e+00 +4.8030399193e+02 4.8030399193e+02 0.0000000000e+00 0.0000e+00 1.0000e+00
       -3 -1    0    0    0  501 -0.0000000000e+00 -0.0000000000e+00 -7.0189375516e+02 7.0189375516e+02 0.0000000000e+00 0.0000e+00 -1.0000e+00
  5000001  2    1    2    0    0 +7.8022632452e+01 -9.6327614429e+01 -2.9358264336e+02 1.0388467259e+03 9.8875943032e+02 0.0000e+00 0.0000e+00
  5000521  1    3    3    0    0 -4.4536173180e+02 +4.0130535561e+01 -6.6704879315e+01 4.5222458244e+02 1.0000000000e+01 0.0000e+00 1.0000e+00
 -5000521  1    3    3    0    0 +5.2338436425e+02 -1.3645814999e+02 -2.2687776404e+02 5.8662214351e+02 1.0000000000e+01 0.0000e+00 -1.0000e+00
       21  1    1    2  502  501 -7.8022632452e+01 +9.6327614429e+01 +7.1992880123e+01 1.4335102115e+02 0.0000000000e+00 0.0000e+00 -1.0000e+00
<mgrwt>
<rscale>  1 0.99649975E+03</rscale>
<asrwt>0</asrwt>
<pdfrwt beam="1">  1        3 0.73892922E-01 0.99649975E+03</pdfrwt>
<pdfrwt beam="2">  1       -3 0.10798365E+00 0.99649975E+03</pdfrwt>
<totfact> 0.32846455E+00</totfact>
</mgrwt>
</event>
<event>
 6      1 +3.0741590e+01 1.01965800e+03 7.81860800e-03 9.28724300e-02
       21 -1    0    0  501  502 +0.0000000000e+00 +0.0000000000e+00 +9.5331330101e+02 9.5331330101e+02 0.0000000000e+00 0.0000e+00 -1.0000e+00
        2 -1    0    0  502    0 -0.0000000000e+00 -0.0000000000e+00 -3.7546425852e+02 3.7546425852e+02 0.0000000000e+00 0.0000e+00 1.0000e+00
  5000001  2    1    2    0    0 -7.9527640242e+00 -3.5887812715e+01 +3.2053640879e+02 1.0688526223e+03 1.0189951703e+03 0.0000e+00 0.0000e+00
  5000521  1    3    3    0    0 -4.9488080319e+02 -2.8689855261e+01 +3.0379279876e+02 5.8148102440e+02 1.0000000000e+01 0.0000e+00 -1.0000e+00
 -5000521  1    3    3    0    0 +4.8692803917e+02 -7.1979574534e+00 +1.6743610037e+01 4.8737159786e+02 1.0000000000e+01 0.0000e+00 1.0000e+00
        2  1    1    2  501    0 +7.9527640242e+00 +3.5887812715e+01 +2.5731263369e+02 2.5992493727e+02 0.0000000000e+00 0.0000e+00 1.0000e+00
<mgrwt>
<rscale>  1 0.10196580E+04</rscale>
<asrwt>0</asrwt>
<pdfrwt beam="1">  1       21 0.14666358E+00 0.10196580E+04</pdfrwt>
<pdfrwt beam="2">  1        2 0.57763732E-01 0.10196580E+04</pdfrwt>
<totfact> 0.26919278E+02</totfact>
</mgrwt>
</event>
<event>
 6      1 +3.0741590e+01 1.01459200e+03 7.81860800e-03 9.29268400e-02
       -1 -1    0    0    0  501 -0.0000000000e+00 +0.0000000000e+00 +7.4633779665e+02 7.4633779665e+02 0.0000000000e+00 0.0000e+00 1.0000e+00
        1 -1    0    0  502    0 +0.0000000000e+00 -0.0000000000e+00 -5.7388224454e+02 5.7388224454e+02 0.0000000000e+00 0.0000e+00 -1.0000e+00
  5000001  2    1    2    0    0 +2.3344631758e+01 +1.5347750937e+02 +3.6017365143e+02 1.0766252906e+03 1.0026448222e+03 0.0000e+00 0.0000e+00
  5000521  1    3    3    0    0 +9.7076642850e+01 -9.6453932411e-01 -3.4105578659e+02 3.5474477373e+02 1.0000000000e+01 0.0000e+00 -1.0000e+00
 -5000521  1    3    3    0    0 -7.3732011092e+01 +1.5444204870e+02 +7.0122943801e+02 7.2188051685e+02 1.0000000000e+01 0.0000e+00 1.0000e+00
       21  1    1    2  502  501 -2.3344631758e+01 -1.5347750937e+02 -1.8771809932e+02 2.4359475062e+02 0.0000000000e+00 0.0000e+00 -1.0000e+00
<mgrwt>
<rscale>  1 0.10145920E+04</rscale>
<asrwt>0</asrwt>
<pdfrwt beam="1">  1        1 0.88289576E-01 0.10145920E+04</pdfrwt>
<pdfrwt beam="2">  1       -1 0.11482120E+00 0.10145920E+04</pdfrwt>
<totfact> 0.25195313E+01</totfact>
</mgrwt>
</event>
<event>
 6      1 +3.0741590e+01 1.19019400e+03 7.81860800e-03 9.12148300e-02
        1 -1    0    0  502    0 +0.0000000000e+00 +0.0000000000e+00 +7.5460795073e+02 7.5460795073e+02 0.0000000000e+00 0.0000e+00 -1.0000e+00
       -1 -1    0    0    0  501 -0.0000000000e+00 -0.0000000000e+00 -1.4437351566e+03 1.4437351566e+03 0.0000000000e+00 0.0000e+00 1.0000e+00
  5000001  2    1    2    0    0 +2.1358591897e+01 +6.5810745762e+02 +7.1455937719e+01 1.1923369774e+03 9.9146351487e+02 0.0000e+00 0.0000e+00
  5000521  1    3    3    0    0 -4.5105243855e+02 +5.3632285476e+02 +1.3818734186e+01 7.0098606568e+02 1.0000000000e+01 0.0000e+00 1.0000e+00
 -5000521  1    3    3    0    0 +4.7241103044e+02 +1.2178460286e+02 +5.7637203533e+01 4.9135091168e+02 1.0000000000e+01 0.0000e+00 -1.0000e+00
       21  1    1    2  502  501 -2.1358591897e+01 -6.5810745762e+02 -7.6058314358e+02 1.0060061300e+03 0.0000000000e+00 0.0000e+00 1.0000e+00
<mgrwt>
<rscale>  1 0.11901939E+04</rscale>
<asrwt>0</asrwt>
<pdfrwt beam="1">  1        1 0.11609353E+00 0.11901939E+04</pdfrwt>
<pdfrwt beam="2">  1       -1 0.22211310E+00 0.11901939E+04</pdfrwt>
<totfact> 0.25438203E+00</totfact>
</mgrwt>
</event>
<event>
 6      1 +3.0741590e+01 1.00658800e+03 7.81860800e-03 9.30134900e-02
       -2 -1    0    0    0  501 -0.0000000000e+00 +0.0000000000e+00 +5.5417601008e+02 5.5417601008e+02 0.0000000000e+00 0.0000e+00 1.0000e+00
        2 -1    0    0  502    0 +0.0000000000e+00 -0.0000000000e+00 -5.7632291341e+02 5.7632291341e+02 0.0000000000e+00 0.0000e+00 -1.0000e+00
  5000001  2    1    2    0    0 -9.6401226390e+01 -3.8598581233e+01 +4.3707294364e+01 1.0075362370e+03 1.0012172064e+03 0.0000e+00 0.0000e+00
  5000521  1    3    3    0    0 -2.1507948855e+02 +2.6709702747e+02 -3.5333272507e+02 4.9248758673e+02 1.0000000000e+01 0.0000e+00 -1.0000e+00
 -5000521  1    3    3    0    0 +1.1867826216e+02 -3.0569560870e+02 +3.9704001943e+02 5.1504865025e+02 1.0000000000e+01 0.0000e+00 1.0000e+00
       21  1    1    2  502  501 +9.6401226390e+01 +3.8598581233e+01 -6.5854197695e+01 1.2296268652e+02 0.0000000000e+00 0.0000e+00 -1.0000e+00
<mgrwt>
<rscale>  1 0.10065878E+04</rscale>
<asrwt>0</asrwt>
<pdfrwt beam="1">  1        2 0.88665063E-01 0.10065878E+04</pdfrwt>
<pdfrwt beam="2">  1       -2 0.85257848E-01 0.10065878E+04</pdfrwt>
<totfact> 0.62134335E+01</totfact>
</mgrwt>
</event>
<event>
 6      1 +3.0741590e+01 9.96885400e+02 7.81860800e-03 9.31196700e-02
        1 -1    0    0  502    0 +0.0000000000e+00 +0.0000000000e+00 +8.6988602690e+02 8.6988602690e+02 0.0000000000e+00 0.0000e+00 -1.0000e+00
       -1 -1    0    0    0  501 -0.0000000000e+00 -0.0000000000e+00 -3.0218896233e+02 3.0218896233e+02 0.0000000000e+00 0.0000e+00 1.0000e+00
  5000001  2    1    2    0    0 -1.7404529388e+01 -1.0007910480e+01 +5.7486061921e+02 1.1507585066e+03 9.9668316587e+02 0.0000e+00 0.0000e+00
  5000521  1    3    3    0    0 -3.9909010395e+02 +2.8574777855e+01 +6.4650502792e+02 7.6036713509e+02 1.0000000000e+01 0.0000e+00 -1.0000e+00
 -5000521  1    3    3    0    0 +3.8168557456e+02 -3.8582688335e+01 -7.1644408714e+01 3.9039137153e+02 1.0000000000e+01 0.0000e+00 1.0000e+00
       21  1    1    2  502  501 +1.7404529388e+01 +1.0007910480e+01 -7.1635546445e+00 2.1316482603e+01 0.0000000000e+00 0.0000e+00 -1.0000e+00
<mgrwt>
<rscale>  1 0.99688535E+03</rscale>
<asrwt>0</asrwt>
<pdfrwt beam="1">  1        1 0.13382862E+00 0.99688535E+03</pdfrwt>
<pdfrwt beam="2">  1       -1 0.46490610E-01 0.99688535E+03</pdfrwt>
<totfact> 0.88987928E+01</totfact>
</mgrwt>
</event>
<event>
 6      1 +3.0741590e+01 1.01495500e+03 7.81860800e-03 9.29229200e-02
        2 -1    0    0  502    0 +0.0000000000e+00 +0.0000000000e+00 +2.7012047696e+03 2.7012047696e+03 0.0000000000e+00 0.0000e+00 1.0000e+00
       -2 -1    0    0    0  501 -0.0000000000e+00 -0.0000000000e+00 -1.1416207880e+02 1.1416207880e+02 0.0000000000e+00 0.0000e+00 -1.0000e+00
  5000001  2    1    2    0    0 -3.4614879688e+01 +2.4005391522e+01 +2.5802575881e+03 2.7726996908e+03 1.0140808180e+03 0.0000e+00 0.0000e+00
  5000521  1    3    3    0    0 -3.4657012848e+02 +3.9507355655e+02 +1.2122873504e+03 1.3213381812e+03 1.0000000000e+01 0.0000e+00 1.0000e+00
 -5000521  1    3    3    0    0 +3.1195524880e+02 -3.7106816502e+02 +1.3679702377e+03 1.4513615096e+03 1.0000000000e+01 0.0000e+00 -1.0000e+00
       21  1    1    2  502  501 +3.4614879688e+01 -2.4005391522e+01 +6.7851026458e+00 4.2667157578e+01 0.0000000000e+00 0.0000e+00 -1.0000e+00
<mgrwt>
<rscale>  1 0.10149553E+04</rscale>
<asrwt>0</asrwt>
<pdfrwt beam="1">  1        2 0.41556992E+00 0.10149553E+04</pdfrwt>
<pdfrwt beam="2">  1       -2 0.17563399E-01 0.10149553E+04</pdfrwt>
<totfact> 0.71990710E+01</totfact>
</mgrwt>
</event>
<event>
 6      1 +3.0741590e+01 1.01646600e+03 7.81860800e-03 9.29066800e-02
       -2 -1    0    0    0  501 -0.0000000000e+00 +0.0000000000e+00 +1.3865087796e+02 1.3865087796e+02 0.0000000000e+00 0.0000e+00 1.0000e+00
        2 -1    0    0  502    0 +0.0000000000e+00 -0.0000000000e+00 -2.2135901952e+03 2.2135901952e+03 0.0000000000e+00 0.0000e+00 -1.0000e+00
  5000001  2    1    2    0    0 +8.9972763192e+01 +1.4677202973e+01 -1.8868045627e+03 2.1431831762e+03 1.0123695721e+03 0.0000e+00 0.0000e+00
  5000521  1    3    3    0    0 -6.2940970300e+01 -3.0252860248e+02 -1.0443118207e+02 3.2632957704e+02 1.0000000000e+01 0.0000e+00 1.0000e+00
 -5000521  1    3    3    0    0 +1.5291373349e+02 +3.1720580545e+02 -1.7823733806e+03 1.8168535992e+03 1.0000000000e+01 0.0000e+00 -1.0000e+00
       21  1    1    2  502  501 -8.9972763192e+01 -1.4677202973e+01 -1.8813475455e+02 2.0905789694e+02 0.0000000000e+00 0.0000e+00 -1.0000e+00
<mgrwt>
<rscale>  1 0.10164658E+04</rscale>
<asrwt>0</asrwt>
<pdfrwt beam="1">  1        2 0.34055229E+00 0.10164658E+04</pdfrwt>
<pdfrwt beam="2">  1       -2 0.21330907E-01 0.10164658E+04</pdfrwt>
<totfact> 0.97155256E+01</totfact>
</mgrwt>
</event>
<event>
 6      1 +3.0741590e+01 9.83941100e+02 7.81860800e-03 9.32633500e-02
       -2 -1    0    0    0  501 -0.0000000000e+00 +0.0000000000e+00 +2.6928217602e+02 2.6928217602e+02 0.0000000000e+00 0.0000e+00 -1.0000e+00
        2 -1    0    0  502    0 +0.0000000000e+00 -0.0000000000e+00 -9.7280241845e+02 9.7280241845e+02 0.0000000000e+00 0.0000e+00 1.0000e+00
  5000001  2    1    2    0    0 +3.1446317334e+01 +3.6604513191e+00 -7.0492249763e+02 1.2103949101e+03 9.8343166558e+02 0.0000e+00 0.0000e+00
  5000521  1    3    3    0    0 -8.8113662760e+01 +3.7896507686e+02 +1.5230103667e+01 3.8950032491e+02 1.0000000000e+01 0.0000e+00 -1.0000e+00
 -5000521  1    3    3    0    0 +1.1955998009e+02 -3.7530462554e+02 -7.2015260130e+02 8.2089458516e+02 1.0000000000e+01 0.0000e+00 1.0000e+00
       21  1    1    2  502  501 -3.1446317334e+01 -3.6604513191e+00 +1.4022552022e+00 3.1689684401e+01 0.0000000000e+00 0.0000e+00 -1.0000e+00
<mgrwt>
<rscale>  1 0.98394111E+03</rscale>
<asrwt>0</asrwt>
<pdfrwt beam="1">  1        2 0.14966191E+00 0.98394111E+03</pdfrwt>
<pdfrwt beam="2">  1       -2 0.41428026E-01 0.98394111E+03</pdfrwt>
<totfact> 0.14455730E+02</totfact>
</mgrwt>
</event>
<event>
 6      1 +3.0741590e+01 1.00419600e+03 7.81860800e-03 9.30395500e-02
       -1 -1    0    0    0  501 -0.0000000000e+00 +0.0000000000e+00 +3.0915210091e+02 3.0915210091e+02 0.0000000000e+00 0.0000e+00 1.0000e+00
        1 -1    0    0  502    0 +0.0000000000e+00 -0.0000000000e+00 -8.5873511770e+02 8.5873511770e+02 0.0000000000e+00 0.0000e+00 -1.0000e+00
  5000001  2    1    2    0    0 +8.1162354612e-01 -2.4884142916e+01 -5.2609923882e+02 1.1336619775e+03 1.0038870409e+03 0.0000e+00 0.0000e+00
  5000521  1    3    3    0    0 -1.4140361981e+02 -4.9393354958e+02 -2.6183961423e+02 5.7673678457e+02 1.0000000000e+01 0.0000e+00 1.0000e+00
 -5000521  1    3    3    0    0 +1.4221524336e+02 +4.6904940666e+02 -2.6425962459e+02 5.5692519293e+02 1.0000000000e+01 0.0000e+00 -1.0000e+00
       21  1    1    2  502  501 -8.1162354612e-01 +2.4884142916e+01 -2.3483777963e+01 3.4225241107e+01 0.0000000000e+00 0.0000e+00 1.0000e+00
<mgrwt>
<rscale>  1 0.10041957E+04</rscale>
<asrwt>0</asrwt>
<pdfrwt beam="1">  1        1 0.13211309E+00 0.10041957E+04</pdfrwt>
<pdfrwt beam="2">  1       -1 0.47561862E-01 0.10041957E+04</pdfrwt>
<totfact> 0.87068144E+01</totfact>
</mgrwt>
</event>
<event>
 6      1 +3.0741590e+01 1.00127500e+03 7.81860800e-03 9.30714800e-02
       -2 -1    0    0    0  501 -0.0000000000e+00 +0.0000000000e+00 +5.0957409329e+02 5.0957409329e+02 0.0000000000e+00 0.0000e+00 -1.0000e+00
        2 -1    0    0  502    0 +0.0000000000e+00 -0.0000000000e+00 -1.4412909244e+03 1.4412909244e+03 0.0000000000e+00 0.0000e+00 1.0000e+00
  5000001  2    1    2    0    0 -2.3327785798e+01 +5.6413581408e+01 -1.2642786687e+03 1.6127466160e+03 9.9941203603e+02 0.0000e+00 0.0000e+00
  5000521  1    3    3    0    0 -2.7428721750e+02 -1.8404218400e+02 -1.2179285383e+03 1.2619647093e+03 1.0000000000e+01 0.0000e+00 1.0000e+00
 -5000521  1    3    3    0    0 +2.5095943170e+02 +2.4045576541e+02 -4.6350130329e+01 3.5078190669e+02 1.0000000000e+01 0.0000e+00 -1.0000e+00
       21  1    1    2  502  501 +2.3327785798e+01 -5.6413581408e+01 +3.3256183754e+02 3.3811840166e+02 0.0000000000e+00 0.0000e+00 -1.0000e+00
<mgrwt>
<rscale>  1 0.10012747E+04</rscale>
<asrwt>0</asrwt>
<pdfrwt beam="1">  1        2 0.22173707E+00 0.10012747E+04</pdfrwt>
<pdfrwt beam="2">  1       -2 0.78396014E-01 0.10012747E+04</pdfrwt>
<totfact> 0.19763033E+01</totfact>
</mgrwt>
</event>
<event>
 6      1 +3.0741590e+01 8.96117200e+02 7.81860800e-03 9.43044800e-02
        2 -1    0    0  502    0 -0.0000000000e+00 +0.0000000000e+00 +1.2355226506e+03 1.2355226506e+03 0.0000000000e+00 0.0000e+00 1.0000e+00
       21 -1    0    0  501  502 +0.0000000000e+00 -0.0000000000e+00 -2.0113017671e+02 2.0113017671e+02 0.0000000000e+00 0.0000e+00 -1.0000e+00
  5000001  2    1    2    0    0 -6.6631830515e+01 -2.4871294128e+01 +8.3458432442e+02 1.2245639811e+03 8.9329030390e+02 0.0000e+00 0.0000e+00
  5000521  1    3    3    0    0 +2.8529465790e+02 -1.1085203859e+02 +8.0460283833e+02 8.6091053178e+02 1.0000000000e+01 0.0000e+00 1.0000e+00
 -5000521  1    3    3    0    0 -3.5192648842e+02 +8.5980744458e+01 +2.9981486096e+01 3.6365344928e+02 1.0000000000e+01 0.0000e+00 -1.0000e+00
        2  1    1    2  501    0 +6.6631830515e+01 +2.4871294128e+01 +1.9980814950e+02 2.1208884628e+02 0.0000000000e+00 0.0000e+00 1.0000e+00
<mgrwt>
<rscale>  1 0.89611715E+03</rscale>
<asrwt>0</asrwt>
<pdfrwt beam="1">  1       21 0.30943105E-01 0.89611715E+03</pdfrwt>
<pdfrwt beam="2">  1        2 0.19008040E+00 0.89611715E+03</pdfrwt>
<totfact> 0.20969641E+03</totfact>
</mgrwt>
</event>
<event>
 6      1 +3.0741590e+01 1.00585000e+03 7.81860800e-03 9.30215200e-02
       -2 -1    0    0    0  501 -0.0000000000e+00 +0.0000000000e+00 +2.3795627453e+02 2.3795627453e+02 0.0000000000e+00 0.0000e+00 1.0000e+00
        2 -1    0    0  502    0 +0.0000000000e+00 -0.0000000000e+00 -1.1136560902e+03 1.1136560902e+03 0.0000000000e+00 0.0000e+00 -1.0000e+00
  5000001  2    1    2    0    0 -1.9755393214e+01 +1.2676797377e+01 -8.5992478782e+02 1.3233311297e+03 1.0055762832e+03 0.0000e+00 0.0000e+00
  5000521  1    3    3    0    0 -4.7140461791e+02 +1.2874767230e+02 -6.4628943468e+02 8.1030137004e+02 1.0000000000e+01 0.0000e+00 -1.0000e+00
 -5000521  1    3    3    0    0 +4.5164922469e+02 -1.1607087492e+02 -2.1363535314e+02 5.1302975965e+02 1.0000000000e+01 0.0000e+00 1.0000e+00
       21  1    1    2  502  501 +1.9755393214e+01 -1.2676797377e+01 -1.5775027897e+01 2.8281235085e+01 0.0000000000e+00 0.0000e+00 -1.0000e+00
<mgrwt>
<rscale>  1 0.10058502E+04</rscale>
<asrwt>0</asrwt>
<pdfrwt beam="1">  1        2 0.17133170E+00 0.10058502E+04</pdfrwt>
<pdfrwt beam="2">  1       -2 0.36608658E-01 0.10058502E+04</pdfrwt>
<totfact> 0.14968379E+02</totfact>
</mgrwt>
</event>
<event>
 6      1 +3.0741590e+01 1.00321200e+03 7.81860800e-03 9.30502900e-02
        2 -1    0    0  502    0 +0.0000000000e+00 +0.0000000000e+00 +9.5310147566e+02 9.5310147566e+02 0.0000000000e+00 0.0000e+00 -1.0000e+00
       -2 -1    0    0    0  501 -0.0000000000e+00 -0.0000000000e+00 -3.9464079600e+02 3.9464079600e+02 0.0000000000e+00 0.0000e+00 1.0000e+00
  5000001  2    1    2    0    0 +9.0516673443e+00 -9.2030143152e+01 +2.6152397698e+02 1.0367392406e+03 9.9894042992e+02 0.0000e+00 0.0000e+00
  5000521  1    3    3    0    0 +2.8645279828e+02 -1.6330476862e+02 +5.4280078998e+02 6.3518213979e+02 1.0000000000e+01 0.0000e+00 -1.0000e+00
 -5000521  1    3    3    0    0 -2.7740113094e+02 +7.1274625471e+01 -2.8127681300e+02 4.0155710081e+02 1.0000000000e+01 0.0000e+00 1.0000e+00
       21  1    1    2  502  501 -9.0516673443e+00 +9.2030143152e+01 +2.9693670268e+02 3.1100303106e+02 0.0000000000e+00 0.0000e+00 -1.0000e+00
<mgrwt>
<rscale>  1 0.10032116E+04</rscale>
<asrwt>0</asrwt>
<pdfrwt beam="1">  1        2 0.14663100E+00 0.10032116E+04</pdfrwt>
<pdfrwt beam="2">  1       -2 0.60713969E-01 0.10032116E+04</pdfrwt>
<totfact> 0.68050414E+01</totfact>
</mgrwt>
</event>
<event>
 6      1 +3.0741590e+01 1.00737800e+03 7.81860800e-03 9.30049000e-02
        2 -1    0    0  502    0 +0.0000000000e+00 +0.0000000000e+00 +2.1309555166e+03 2.1309555166e+03 0.0000000000e+00 0.0000e+00 -1.0000e+00
       -2 -1    0    0    0  501 -0.0000000000e+00 -0.0000000000e+00 -1.3507487534e+02 1.3507487534e+02 0.0000000000e+00 0.0000e+00 1.0000e+00
  5000001  2    1    2    0    0 +4.4988439084e+01 -4.7604736043e+01 +1.8824092101e+03 2.1350115528e+03 1.0052461019e+03 0.0000e+00 0.0000e+00
  5000521  1    3    3    0    0 -4.4636074823e+02 -1.5156058612e+02 +1.1864620186e+03 1.2767147882e+03 1.0000000000e+01 0.0000e+00 -1.0000e+00
 -5000521  1    3    3    0    0 +4.9134918732e+02 +1.0395585008e+02 +6.9594719159e+02 8.5829676460e+02 1.0000000000e+01 0.0000e+00 1.0000e+00
       21  1    1    2  502  501 -4.4988439084e+01 +4.7604736043e+01 +1.1347143117e+02 1.3101883924e+02 0.0000000000e+00 0.0000e+00 -1.0000e+00
<mgrwt>
<rscale>  1 0.10073777E+04</rscale>
<asrwt>0</asrwt>
<pdfrwt beam="1">  1        2 0.32783929E+00 0.10073777E+04</pdfrwt>
<pdfrwt beam="2">  1       -2 0.20780752E-01 0.10073777E+04</pdfrwt>
<totfact> 0.11318181E+02</totfact>
</mgrwt>
</event>
<event>
 6      1 +3.0741590e+01 9.72231800e+02 7.81860800e-03 9.33953600e-02
        2 -1    0    0  502    0 -0.0000000000e+00 +0.0000000000e+00 +6.8403055856e+02 6.8403055856e+02 0.0000000000e+00 0.0000e+00 1.0000e+00
       21 -1    0    0  501  502 +0.0000000000e+00 -0.0000000000e+00 -4.6162177158e+02 4.6162177158e+02 0.0000000000e+00 0.0000e+00 -1.0000e+00
  5000001  2    1    2    0    0 +8.0445329652e+01 -4.9129751973e+01 +3.0643063304e+02 1.0193793948e+03 9.6765150443e+02 0.0000e+00 0.0000e+00
  5000521  1    3    3    0    0 -7.2415333639e+01 +3.0647927158e+02 +4.9650632616e+02 5.8804086284e+02 1.0000000000e+01 0.0000e+00 1.0000e+00
 -5000521  1    3    3    0    0 +1.5286066329e+02 -3.5560902356e+02 -1.9007569312e+02 4.3133853193e+02 1.0000000000e+01 0.0000e+00 -1.0000e+00
        2  1    1    2  501    0 -8.0445329652e+01 +4.9129751973e+01 -8.4021846055e+01 1.2627293537e+02 0.0000000000e+00 0.0000e+00 1.0000e+00
<mgrwt>
<rscale>  1 0.97223177E+03</rscale>
<asrwt>0</asrwt>
<pdfrwt beam="1">  1       21 0.71018734E-01 0.97223177E+03</pdfrwt>
<pdfrwt beam="2">  1        2 0.10523547E+00 0.97223177E+03</pdfrwt>
<totfact> 0.81778633E+02</totfact>
</mgrwt>
</event>
<event>
 6      1 +3.0741590e+01 1.00309000e+03 7.81860800e-03 9.30516300e-02
        1 -1    0    0  502    0 +0.0000000000e+00 +0.0000000000e+00 +5.2123966883e+02 5.2123966883e+02 0.0000000000e+00 0.0000e+00 -1.0000e+00
       -1 -1    0    0    0  501 -0.0000000000e+00 -0.0000000000e+00 -5.4137514977e+02 5.4137514977e+02 0.0000000000e+00 0.0000e+00 1.0000e+00
  5000001  2    1    2    0    0 +2.0950942733e+01 -1.7000666785e+01 +3.2338349903e+01 1.0036108560e+03 1.0027267907e+03 0.0000e+00 0.0000e+00
  5000521  1    3    3    0    0 +2.8048152438e+02 -5.1413298735e+01 -4.0403549353e+02 4.9462904569e+02 1.0000000000e+01 0.0000e+00 1.0000e+00
 -5000521  1    3    3    0    0 -2.5953058165e+02 +3.4412631950e+01 +4.3637384343e+02 5.0898181036e+02 1.0000000000e+01 0.0000e+00 -1.0000e+00
       21  1    1    2  502  501 -2.0950942733e+01 +1.7000666785e+01 -5.2473830852e+01 5.9003962552e+01 0.0000000000e+00 0.0000e+00 1.0000e+00
<mgrwt>
<rscale>  1 0.10030897E+04</rscale>
<asrwt>0</asrwt>
<pdfrwt beam="1">  1        1 0.80190719E-01 0.10030897E+04</pdfrwt>
<pdfrwt beam="2">  1       -1 0.83288484E-01 0.10030897E+04</pdfrwt>
<totfact> 0.60024459E+01</totfact>
</mgrwt>
</event>
<event>
 6      1 +3.0741590e+01 9.99002900e+02 7.81860800e-03 9.30963900e-02
       21 -1    0    0  501  502 +0.0000000000e+00 +0.0000000000e+00 +3.1314137259e+02 3.1314137259e+02 0.0000000000e+00 0.0000e+00 1.0000e+00
        5 -1    0    0  502    0 -0.0000000000e+00 -0.0000000000e+00 -1.2881077974e+03 1.2881077974e+03 0.0000000000e+00 0.0000e+00 -1.0000e+00
  5000001  2    1    2    0    0 +3.7556698972e+01 -5.2017870022e+01 -1.0843807931e+03 1.4744112087e+03 9.9694049147e+02 0.0000e+00 0.0000e+00
  5000521  1    3    3    0    0 -7.3686176237e+01 -1.2602106303e+02 -1.2516067364e+03 1.2601310977e+03 1.0000000000e+01 0.0000e+00 -1.0000e+00
 -5000521  1    3    3    0    0 +1.1124287521e+02 +7.4003193009e+01 +1.6722594329e+02 2.1428011100e+02 1.0000000000e+01 0.0000e+00 1.0000e+00
        5  1    1    2  501    0 -3.7556698972e+01 +5.2017870022e+01 +1.0941436828e+02 1.2683796129e+02 0.0000000000e+00 0.0000e+00 -1.0000e+00
<mgrwt>
<rscale>  1 0.99900286E+03</rscale>
<asrwt>0</asrwt>
<pdfrwt beam="1">  1       21 0.48175595E-01 0.99900286E+03</pdfrwt>
<pdfrwt beam="2">  1        5 0.19817043E+00 0.99900286E+03</pdfrwt>
<totfact> 0.12836422E+01</totfact>
</mgrwt>
</event>
<event>
 6      1 +3.0741590e+01 1.04215000e+03 7.81860800e-03 9.26348600e-02
       -2 -1    0    0    0  501 -0.0000000000e+00 +0.0000000000e+00 +5.5878925806e+02 5.5878925806e+02 0.0000000000e+00 0.0000e+00 1.0000e+00
        2 -1    0    0  502    0 +0.0000000000e+00 -0.0000000000e+00 -6.2859997294e+02 6.2859997294e+02 0.0000000000e+00 0.0000e+00 -1.0000e+00
  5000001  2    1    2    0    0 +2.1964029369e+01 +1.2854568367e+01 +7.0744599248e+01 1.0445485686e+03 1.0418393616e+03 0.0000e+00 0.0000e+00
  5000521  1    3    3    0    0 -2.5294067349e+02 +1.8880813505e+02 -3.7610203097e+02 4.9110104242e+02 1.0000000000e+01 0.0000e+00 -1.0000e+00
 -5000521  1    3    3    0    0 +2.7490470285e+02 -1.7595356668e+02 +4.4684663022e+02 5.5344752616e+02 1.0000000000e+01 0.0000e+00 1.0000e+00
       21  1    1    2  502  501 -2.1964029369e+01 -1.2854568367e+01 -1.4055531412e+02 1.4284066242e+02 0.0000000000e+00 0.0000e+00 -1.0000e+00
<mgrwt>
<rscale>  1 0.10421501E+04</rscale>
<asrwt>0</asrwt>
<pdfrwt beam="1">  1        2 0.96707688E-01 0.10421501E+04</pdfrwt>
<pdfrwt beam="2">  1       -2 0.85967578E-01 0.10421501E+04</pdfrwt>
<totfact> 0.54740456E+01</totfact>
</mgrwt>
</event>
<event>
 6      1 +3.0741590e+01 9.98886400e+02 7.81860800e-03 9.30976700e-02
       -2 -1    0    0    0  501 -0.0000000000e+00 +0.0000000000e+00 +3.1200788975e+02 3.1200788975e+02 0.0000000000e+00 0.0000e+00 1.0000e+00
        2 -1    0    0  502    0 +0.0000000000e+00 -0.0000000000e+00 -1.0304059569e+03 1.0304059569e+03 0.0000000000e+00 0.0000e+00 -1.0000e+00
  5000001  2    1    2    0    0 +2.6305085515e+01 -3.3685084621e+00 -7.8518976097e+02 1.2705498451e+03 9.9853424763e+02 0.0000e+00 0.0000e+00
  5000521  1    3    3    0    0 -1.2590869811e+02 +2.6419427186e+00 +2.2007600772e+02 2.5375860437e+02 1.0000000000e+01 0.0000e+00 1.0000e+00
 -5000521  1    3    3    0    0 +1.5221378363e+02 -6.0104511807e+00 -1.0052657687e+03 1.0167912407e+03 1.0000000000e+01 0.0000e+00 -1.0000e+00
       21  1    1    2  502  501 -2.6305085515e+01 +3.3685084621e+00 +6.6791693774e+01 7.1864001631e+01 0.0000000000e+00 0.0000e+00 1.0000e+00
<mgrwt>
<rscale>  1 0.99888635E+03</rscale>
<asrwt>0</asrwt>
<pdfrwt beam="1">  1        2 0.15852399E+00 0.99888635E+03</pdfrwt>
<pdfrwt beam="2">  1       -2 0.48001214E-01 0.99888635E+03</pdfrwt>
<totfact> 0.98802115E+01</totfact>
</mgrwt>
</event>
<event>
 6      1 +3.0741590e+01 1.00369300e+03 7.81860800e-03 9.30450400e-02
        1 -1    0    0  502    0 -0.0000000000e+00 +0.0000000000e+00 +1.4398350979e+03 1.4398350979e+03 0.0000000000e+00 0.0000e+00 1.0000e+00
       21 -1    0    0  501  502 +0.0000000000e+00 -0.0000000000e+00 -2.3262824301e+02 2.3262824301e+02 0.0000000000e+00 0.0000e+00 -1.0000e+00
  5000001  2    1    2    0    0 +1.5586784325e+01 -1.5839058261e+01 +1.2625090558e+03 1.6128633658e+03 1.0034467088e+03 0.0000e+00 0.0000e+00
  5000521  1    3    3    0    0 +3.5521515892e+02 -2.7332177436e+02 +1.0388161505e+03 1.1314245870e+03 1.0000000000e+01 0.0000e+00 1.0000e+00
 -5000521  1    3    3    0    0 -3.3962837459e+02 +2.5748271610e+02 +2.2369290527e+02 4.8143877886e+02 1.0000000000e+01 0.0000e+00 -1.0000e+00
        1  1    1    2  501    0 -1.5586784325e+01 +1.5839058261e+01 -5.5302200863e+01 5.9599975105e+01 0.0000000000e+00 0.0000e+00 1.0000e+00
<mgrwt>
<rscale>  1 0.10036927E+04</rscale>
<asrwt>0</asrwt>
<pdfrwt beam="1">  1       21 0.35788961E-01 0.10036927E+04</pdfrwt>
<pdfrwt beam="2">  1        1 0.22151309E+00 0.10036927E+04</pdfrwt>
<totfact> 0.54302678E+02</totfact>
</mgrwt>
</event>
<event>
 6      1 +3.0741590e+01 9.93751600e+02 7.81860800e-03 9.31542500e-02
        5 -1    0    0  502    0 +0.0000000000e+00 +0.0000000000e+00 +1.6468100356e+03 1.6468100356e+03 0.0000000000e+00 0.0000e+00 1.0000e+00
       -5 -1    0    0    0  501 -0.0000000000e+00 -0.0000000000e+00 -2.5496655324e+02 2.5496655324e+02 0.0000000000e+00 0.0000e+00 -1.0000e+00
  5000001  2    1    2    0    0 +1.4154742330e+01 -1.4176655818e+01 +7.1404944572e+02 1.2236865577e+03 9.9354961937e+02 0.0000e+00 0.0000e+00
  5000521  1    3    3    0    0 -4.7863685933e+02 +6.9087657269e+00 +2.2500232334e+02 5.2902459268e+02 1.0000000000e+01 0.0000e+00 -1.0000e+00
 -5000521  1    3    3    0    0 +4.9279160166e+02 -2.1085421545e+01 +4.8904712238e+02 6.9466196497e+02 1.0000000000e+01 0.0000e+00 1.0000e+00
       21  1    1    2  502  501 -1.4154742330e+01 +1.4176655818e+01 +6.7779403665e+02 6.7809003120e+02 0.0000000000e+00 0.0000e+00 1.0000e+00
<mgrwt>
<rscale>  1 0.99375157E+03</rscale>
<asrwt>0</asrwt>
<pdfrwt beam="1">  1        5 0.25335538E+00 0.99375157E+03</pdfrwt>
<pdfrwt beam="2">  1       -5 0.39225625E-01 0.99375157E+03</pdfrwt>
<totfact> 0.29457756E-01</totfact>
</mgrwt>
</event>
<event>
 6      1 +3.0741590e+01 9.72297400e+02 7.81860800e-03 9.33946100e-02
       -2 -1    0    0    0  501 -0.0000000000e+00 +0.0000000000e+00 +1.6305274528e+02 1.6305274528e+02 0.0000000000e+00 0.0000e+00 -1.0000e+00
        2 -1    0    0  502    0 +0.0000000000e+00 -0.0000000000e+00 -1.7875725824e+03 1.7875725824e+03 0.0000000000e+00 0.0000e+00 1.0000e+00
  5000001  2    1    2    0    0 +6.0270751847e+01 +8.4109324227e+01 -1.5131364767e+03 1.7985950842e+03 9.6677574332e+02 0.0000e+00 0.0000e+00
  5000521  1    3    3    0    0 -3.4883019335e+02 +2.6181787331e+02 -1.1272218427e+03 1.2087018595e+03 1.0000000000e+01 0.0000e+00 1.0000e+00
 -5000521  1    3    3    0    0 +4.0910094520e+02 -1.7770854908e+02 -3.8591463397e+02 5.8989322465e+02 1.0000000000e+01 0.0000e+00 -1.0000e+00
       21  1    1    2  502  501 -6.0270751847e+01 -8.4109324227e+01 -1.1138336045e+02 1.5203024349e+02 0.0000000000e+00 0.0000e+00 -1.0000e+00
<mgrwt>
<rscale>  1 0.97229742E+03</rscale>
<asrwt>0</asrwt>
<pdfrwt beam="1">  1        2 0.27501117E+00 0.97229742E+03</pdfrwt>
<pdfrwt beam="2">  1       -2 0.25085038E-01 0.97229742E+03</pdfrwt>
<totfact> 0.12524359E+02</totfact>
</mgrwt>
</event>
<event>
 6      1 +3.0741590e+01 9.99703100e+02 7.81860800e-03 9.30887000e-02
       -3 -1    0    0    0  501 -0.0000000000e+00 +0.0000000000e+00 +3.1394423770e+02 3.1394423770e+02 0.0000000000e+00 0.0000e+00 -1.0000e+00
        3 -1    0    0  502    0 +0.0000000000e+00 -0.0000000000e+00 -1.1910140062e+03 1.1910140062e+03 0.0000000000e+00 0.0000e+00 1.0000e+00
  5000001  2    1    2    0    0 -3.0041564100e+01 +5.0052395756e+01 -4.8967187612e+02 1.1131867992e+03 9.9799727738e+02 0.0000e+00 0.0000e+00
  5000521  1    3    3    0    0 -4.0712918876e+02 +3.0051586686e+02 -1.0024226155e+02 5.1595782151e+02 1.0000000000e+01 0.0000e+00 -1.0000e+00
 -5000521  1    3    3    0    0 +3.7708762466e+02 -2.5046347111e+02 -3.8942961457e+02 5.9722897765e+02 1.0000000000e+01 0.0000e+00 1.0000e+00
       21  1    1    2  502  501 +3.0041564100e+01 -5.0052395756e+01 -3.8739789236e+02 3.9177144473e+02 0.0000000000e+00 0.0000e+00 1.0000e+00
<mgrwt>
<rscale>  1 0.99970311E+03</rscale>
<asrwt>0</asrwt>
<pdfrwt beam="1">  1        3 0.18323292E+00 0.99970311E+03</pdfrwt>
<pdfrwt beam="2">  1       -3 0.48299114E-01 0.99970311E+03</pdfrwt>
<totfact> 0.20919954E+00</totfact>
</mgrwt>
</event>
<event>
 6      1 +3.0741590e+01 1.04137700e+03 7.81860800e-03 9.26429300e-02
        1 -1    0    0  502    0 +0.0000000000e+00 +0.0000000000e+00 +8.9063048274e+02 8.9063048274e+02 0.0000000000e+00 0.0000e+00 -1.0000e+00
       -1 -1    0    0    0  501 -0.0000000000e+00 -0.0000000000e+00 -7.9709377689e+02 7.9709377689e+02 0.0000000000e+00 0.0000e+00 1.0000e+00
  5000001  2    1    2    0    0 +2.3793786456e+02 +2.7337335803e+01 -4.1859410923e+02 1.1223573619e+03 1.0134610314e+03 0.0000e+00 0.0000e+00
  5000521  1    3    3    0    0 -1.0481745544e+02 +4.4066595496e+02 -3.6657400159e+02 5.8279471640e+02 1.0000000000e+01 0.0000e+00 -1.0000e+00
 -5000521  1    3    3    0    0 +3.4275532000e+02 -4.1332861915e+02 -5.2020107640e+01 5.3956264548e+02 1.0000000000e+01 0.0000e+00 1.0000e+00
       21  1    1    2  502  501 -2.3793786456e+02 -2.7337335803e+01 +5.1213081508e+02 5.6536689776e+02 0.0000000000e+00 0.0000e+00 -1.0000e+00
<mgrwt>
<rscale>  1 0.10413765E+04</rscale>
<asrwt>0</asrwt>
<pdfrwt beam="1">  1        1 0.13702007E+00 0.10413765E+04</pdfrwt>
<pdfrwt beam="2">  1       -1 0.12262981E+00 0.10413765E+04</pdfrwt>
<totfact> 0.10852076E+01</totfact>
</mgrwt>
</event>
<event>
 6      1 +3.0741590e+01 1.01501100e+03 7.81860800e-03 9.29223200e-02
       -2 -1    0    0    0  501 -0.0000000000e+00 +0.0000000000e+00 +1.2503724248e+02 1.2503724248e+02 0.0000000000e+00 0.0000e+00 -1.0000e+00
        2 -1    0    0  502    0 +0.0000000000e+00 -0.0000000000e+00 -2.2922172007e+03 2.2922172007e+03 0.0000000000e+00 0.0000e+00 1.0000e+00
  5000001  2    1    2    0    0 -5.4923608664e+01 -9.2763396475e+00 -2.0569003671e+03 2.2937059042e+03 1.0134816237e+03 0.0000e+00 0.0000e+00
  5000521  1    3    3    0    0 -2.1577589902e+02 -4.6337607773e+02 -8.2069074388e+02 9.6690740255e+02 1.0000000000e+01 0.0000e+00 -1.0000e+00
 -5000521  1    3    3    0    0 +1.6085229035e+02 +4.5409973808e+02 -1.2362096233e+03 1.3267985017e+03 1.0000000000e+01 0.0000e+00 1.0000e+00
       21  1    1    2  502  501 +5.4923608664e+01 +9.2763396475e+00 -1.1027959107e+02 1.2354853894e+02 0.0000000000e+00 0.0000e+00 -1.0000e+00
<mgrwt>
<rscale>  1 0.10150112E+04</rscale>
<asrwt>0</asrwt>
<pdfrwt beam="1">  1        2 0.35264879E+00 0.10150112E+04</pdfrwt>
<pdfrwt beam="2">  1       -2 0.19236499E-01 0.10150112E+04</pdfrwt>
<totfact> 0.10536246E+02</totfact>
</mgrwt>
</event>
<event>
 6      1 +3.0741590e+01 9.92597300e+02 7.81860800e-03 9.31670100e-02
        2 -1    0    0  502    0 +0.0000000000e+00 +0.0000000000e+00 +9.6301038942e+02 9.6301038942e+02 0.0000000000e+00 0.0000e+00 -1.0000e+00
       -2 -1    0    0    0  501 -0.0000000000e+00 -0.0000000000e+00 -2.8133703119e+02 2.8133703119e+02 0.0000000000e+00 0.0000e+00 1.0000e+00
  5000001  2    1    2    0    0 -7.5406355627e+00 -4.7740958082e+01 +6.4653218059e+02 1.1845898886e+03 9.9141983207e+02 0.0000e+00 0.0000e+00
  5000521  1    3    3    0    0 +2.2576026965e+01 +1.1976560823e+02 +8.8391280603e+02 8.9233139952e+02 1.0000000000e+01 0.0000e+00 -1.0000e+00
 -5000521  1    3    3    0    0 -3.0116662528e+01 -1.6750656632e+02 -2.3738062544e+02 2.9225848910e+02 1.0000000000e+01 0.0000e+00 1.0000e+00
       21  1    1    2  502  501 +7.5406355627e+00 +4.7740958082e+01 +3.5141177645e+01 5.9757531990e+01 0.0000000000e+00 0.0000e+00 -1.0000e+00
<mgrwt>
<rscale>  1 0.99259727E+03</rscale>
<asrwt>0</asrwt>
<pdfrwt beam="1">  1        2 0.14815544E+00 0.99259727E+03</pdfrwt>
<pdfrwt beam="2">  1       -2 0.43282621E-01 0.99259727E+03</pdfrwt>
<totfact> 0.13446612E+02</totfact>
</mgrwt>
</event>
<event>
 6      1 +3.0741590e+01 9.97898300e+02 7.81860800e-03 9.31085300e-02
        2 -1    0    0  502    0 +0.0000000000e+00 +0.0000000000e+00 +1.0764968789e+03 1.0764968789e+03 0.0000000000e+00 0.0000e+00 -1.0000e+00
       -2 -1    0    0    0  501 -0.0000000000e+00 -0.0000000000e+00 -2.4847946282e+02 2.4847946282e+02 0.0000000000e+00 0.0000e+00 1.0000e+00
  5000001  2    1    2    0    0 +2.9675772103e+01 +4.9006364385e+00 +7.7299166869e+02 1.2622666888e+03 9.9744493895e+02 0.0000e+00 0.0000e+00
  5000521  1    3    3    0    0 -2.4219368134e+02 +1.2219897878e+02 -1.3784937834e+02 3.0445495694e+02 1.0000000000e+01 0.0000e+00 1.0000e+00
 -5000521  1    3    3    0    0 +2.7186945345e+02 -1.1729834234e+02 +9.1084104703e+02 9.5781173191e+02 1.0000000000e+01 0.0000e+00 -1.0000e+00
       21  1    1    2  502  501 -2.9675772103e+01 -4.9006364385e+00 +5.5025747380e+01 6.2709652863e+01 0.0000000000e+00 0.0000e+00 -1.0000e+00
<mgrwt>
<rscale>  1 0.99789833E+03</rscale>
<asrwt>0</asrwt>
<pdfrwt beam="1">  1        2 0.16561490E+00 0.99789833E+03</pdfrwt>
<pdfrwt beam="2">  1       -2 0.38227610E-01 0.99789833E+03</pdfrwt>
<totfact> 0.14520607E+02</totfact>
</mgrwt>
</event>
<event>
 6      1 +3.0741590e+01 1.00429800e+03 7.81860800e-03 9.30384400e-02
        2 -1    0    0  502    0 +0.0000000000e+00 +0.0000000000e+00 +9.6598200615e+02 9.6598200615e+02 0.0000000000e+00 0.0000e+00 1.0000e+00
       -2 -1    0    0    0  501 -0.0000000000e+00 -0.0000000000e+00 -4.1334515954e+02 4.1334515954e+02 0.0000000000e+00 0.0000e+00 -1.0000e+00
  5000001  2    1    2    0    0 -7.1501352328e+00 -2.8969503634e+01 +7.0308697021e+02 1.2259466054e+03 1.0038542898e+03 0.0000e+00 0.0000e+00
  5000521  1    3    3    0    0 +4.1098385883e+02 -6.9393655751e+01 +6.8922570152e+02 8.0551553636e+02 1.0000000000e+01 0.0000e+00 1.0000e+00
 -5000521  1    3    3    0    0 -4.1813399407e+02 +4.0424152117e+01 +1.3861268686e+01 4.2043106907e+02 1.0000000000e+01 0.0000e+00 -1.0000e+00
       21  1    1    2  502  501 +7.1501352328e+00 +2.8969503634e+01 -1.5045012360e+02 1.5338056026e+02 0.0000000000e+00 0.0000e+00 -1.0000e+00
<mgrwt>
<rscale>  1 0.10042977E+04</rscale>
<asrwt>0</asrwt>
<pdfrwt beam="1">  1        2 0.14861262E+00 0.10042977E+04</pdfrwt>
<pdfrwt beam="2">  1       -2 0.63591563E-01 0.10042977E+04</pdfrwt>
<totfact> 0.60446600E+01</totfact>
</mgrwt>
</event>
<event>
 6      1 +3.0741590e+01 1.00288800e+03 7.81860800e-03 9.30538300e-02
       -2 -1    0    0    0  501 -0.0000000000e+00 +0.0000000000e+00 +1.6896468740e+02 1.6896468740e+02 0.0000000000e+00 0.0000e+00 -1.0000e+00
        2 -1    0    0  502    0 +0.0000000000e+00 -0.0000000000e+00 -1.6995122059e+03 1.6995122059e+03 0.0000000000e+00 0.0000e+00 1.0000e+00
  5000001  2    1    2    0    0 -4.9300718344e+01 -2.1989372755e+01 -1.5055313148e+03 1.8089798027e+03 1.0014336190e+03 0.0000e+00 0.0000e+00
  5000521  1    3    3    0    0 -3.5953561797e+02 +3.2905098556e+02 -1.0393612935e+03 1.1480036194e+03 1.0000000000e+01 0.0000e+00 1.0000e+00
 -5000521  1    3    3    0    0 +3.1023489963e+02 -3.5104035832e+02 -4.6617002132e+02 6.6097618330e+02 1.0000000000e+01 0.0000e+00 -1.0000e+00
       21  1    1    2  502  501 +4.9300718344e+01 +2.1989372755e+01 -2.5016203650e+01 5.9497090589e+01 0.0000000000e+00 0.0000e+00 1.0000e+00
<mgrwt>
<rscale>  1 0.10028875E+04</rscale>
<asrwt>0</asrwt>
<pdfrwt beam="1">  1        2 0.26146341E+00 0.10028875E+04</pdfrwt>
<pdfrwt beam="2">  1       -2 0.25994568E-01 0.10028875E+04</pdfrwt>
<totfact> 0.13099531E+02</totfact>
</mgrwt>
</event>
<event>
 6      1 +3.0741590e+01 1.00147300e+03 7.81860800e-03 9.30693100e-02
       -2 -1    0    0    0  501 -0.0000000000e+00 +0.0000000000e+00 +2.0660140838e+02 2.0660140838e+02 0.0000000000e+00 0.0000e+00 -1.0000e+00
        2 -1    0    0  502    0 +0.0000000000e+00 -0.0000000000e+00 -1.6640556526e+03 1.6640556526e+03 0.0000000000e+00 0.0000e+00 1.0000e+00
  5000001  2    1    2    0    0 +1.7972427348e+01 -4.2941617131e+01 -1.0154713638e+03 1.4262294998e+03 1.0003906760e+03 0.0000e+00 0.0000e+00
  5000521  1    3    3    0    0 +1.3791660782e+02 -1.8127270139e+02 -1.1665642980e+03 1.1886349500e+03 1.0000000000e+01 0.0000e+00 1.0000e+00
 -5000521  1    3    3    0    0 -1.1994418047e+02 +1.3833108426e+02 +1.5109293419e+02 2.3759454974e+02 1.0000000000e+01 0.0000e+00 -1.0000e+00
       21  1    1    2  502  501 -1.7972427348e+01 +4.2941617131e+01 -4.4198288035e+02 4.4442756120e+02 0.0000000000e+00 0.0000e+00 1.0000e+00
<mgrwt>
<rscale>  1 0.10014732E+04</rscale>
<asrwt>0</asrwt>
<pdfrwt beam="1">  1        2 0.25600855E+00 0.10014732E+04</pdfrwt>
<pdfrwt beam="2">  1       -2 0.31784833E-01 0.10014732E+04</pdfrwt>
<totfact> 0.94435618E+01</totfact>
</mgrwt>
</event>
<event>
 6      1 +3.0741590e+01 1.06518200e+03 7.81860800e-03 9.23980900e-02
        2 -1    0    0  502    0 -0.0000000000e+00 +0.0000000000e+00 +1.8483993448e+03 1.8483993448e+03 0.0000000000e+00 0.0000e+00 -1.0000e+00
       21 -1    0    0  501  502 +0.0000000000e+00 -0.0000000000e+00 -2.3251541428e+02 2.3251541428e+02 0.0000000000e+00 0.0000e+00 1.0000e+00
  5000001  2    1    2    0    0 -3.1136447301e+00 -1.9273187041e+02 +1.5427492785e+03 1.8747499076e+03 1.0475956334e+03 0.0000e+00 0.0000e+00
  5000521  1    3    3    0    0 +6.7647088327e+01 +3.6873358560e+01 -1.4791132675e+02 1.6707343808e+02 1.0000000000e+01 0.0000e+00 1.0000e+00
 -5000521  1    3    3    0    0 -7.0760733058e+01 -2.2960522897e+02 +1.6906606052e+03 1.7076764695e+03 1.0000000000e+01 0.0000e+00 -1.0000e+00
        2  1    1    2  501    0 +3.1136447301e+00 +1.9273187041e+02 +7.3134652051e+01 2.0616485148e+02 0.0000000000e+00 0.0000e+00 -1.0000e+00
<mgrwt>
<rscale>  1 0.10651816E+04</rscale>
<asrwt>0</asrwt>
<pdfrwt beam="1">  1       21 0.35771603E-01 0.10651816E+04</pdfrwt>
<pdfrwt beam="2">  1        2 0.28436912E+00 0.10651816E+04</pdfrwt>
<totfact> 0.69098895E+02</totfact>
</mgrwt>
</event>
<event>
 6      1 +3.0741590e+01 9.82373900e+02 7.81860800e-03 9.32809100e-02
        2 -1    0    0  502    0 +0.0000000000e+00 +0.0000000000e+00 +1.2427957910e+03 1.2427957910e+03 0.0000000000e+00 0.0000e+00 -1.0000e+00
       -2 -1    0    0    0  501 -0.0000000000e+00 -0.0000000000e+00 -2.1522897711e+02 2.1522897711e+02 0.0000000000e+00 0.0000e+00 1.0000e+00
  5000001  2    1    2    0    0 +2.8101422824e+01 +2.1811928810e+01 +1.0287163442e+03 1.4224330328e+03 9.8172957875e+02 0.0000e+00 0.0000e+00
  5000521  1    3    3    0    0 +4.9015674935e+02 -6.6012871767e+01 +6.5951239691e+02 8.2441975949e+02 1.0000000000e+01 0.0000e+00 -1.0000e+00
 -5000521  1    3    3    0    0 -4.6205532652e+02 +8.7824800577e+01 +3.6920394729e+02 5.9801327331e+02 1.0000000000e+01 0.0000e+00 1.0000e+00
       21  1    1    2  502  501 -2.8101422824e+01 -2.1811928810e+01 -1.1495302974e+00 3.5591735319e+01 0.0000000000e+00 0.0000e+00 1.0000e+00
<mgrwt>
<rscale>  1 0.98237387E+03</rscale>
<asrwt>0</asrwt>
<pdfrwt beam="1">  1        2 0.19119935E+00 0.98237387E+03</pdfrwt>
<pdfrwt beam="2">  1       -2 0.33112151E-01 0.98237387E+03</pdfrwt>
<totfact> 0.15181872E+02</totfact>
</mgrwt>
</event>
<event>
 6      1 +3.0741590e+01 1.00664700e+03 7.81860800e-03 9.30128400e-02
       -3 -1    0    0    0  501 -0.0000000000e+00 +0.0000000000e+00 +7.6013925535e+02 7.6013925535e+02 0.0000000000e+00 0.0000e+00 -1.0000e+00
        3 -1    0    0  502    0 +0.0000000000e+00 -0.0000000000e+00 -3.7042578770e+02 3.7042578770e+02 0.0000000000e+00 0.0000e+00 1.0000e+00
  5000001  2    1    2    0    0 +2.6860037588e+01 -2.4958079245e+01 +3.2791831751e+02 1.0587109693e+03 1.0059791877e+03 0.0000e+00 0.0000e+00
  5000521  1    3    3    0    0 +1.2037618553e+02 -5.0381137698e+02 +1.5126948955e+02 5.3972102802e+02 1.0000000000e+01 0.0000e+00 1.0000e+00
 -5000521  1    3    3    0    0 -9.3516147946e+01 +4.7885329774e+02 +1.7664882796e+02 5.1898994123e+02 1.0000000000e+01 0.0000e+00 -1.0000e+00
       21  1    1    2  502  501 -2.6860037588e+01 +2.4958079245e+01 +6.1795150150e+01 7.1854073795e+01 0.0000000000e+00 0.0000e+00 1.0000e+00
<mgrwt>
<rscale>  1 0.10066472E+04</rscale>
<asrwt>0</asrwt>
<pdfrwt beam="1">  1        3 0.56988583E-01 0.10066472E+04</pdfrwt>
<pdfrwt beam="2">  1       -3 0.11694450E+00 0.10066472E+04</pdfrwt>
<totfact> 0.47528821E+00</totfact>
</mgrwt>
</event>
<event>
 6      1 +3.0741590e+01 1.01220300e+03 7.81860800e-03 9.29526100e-02
       -2 -1    0    0    0  501 -0.0000000000e+00 +0.0000000000e+00 +3.0016505218e+02 3.0016505218e+02 0.0000000000e+00 0.0000e+00 -1.0000e+00
        2 -1    0    0  502    0 +0.0000000000e+00 -0.0000000000e+00 -1.1370416741e+03 1.1370416741e+03 0.0000000000e+00 0.0000e+00 1.0000e+00
  5000001  2    1    2    0    0 +3.5140787173e+01 +1.0457765283e+02 -6.0195449237e+02 1.1776691233e+03 1.0061729438e+03 0.0000e+00 0.0000e+00
  5000521  1    3    3    0    0 +4.0968373911e+02 +6.1428929706e+01 +5.7129347903e+01 4.1830376748e+02 1.0000000000e+01 0.0000e+00 -1.0000e+00
 -5000521  1    3    3    0    0 -3.7454295193e+02 +4.3148723123e+01 -6.5908384027e+02 7.5936535585e+02 1.0000000000e+01 0.0000e+00 1.0000e+00
       21  1    1    2  502  501 -3.5140787173e+01 -1.0457765283e+02 -2.3492212953e+02 2.5953760293e+02 0.0000000000e+00 0.0000e+00 1.0000e+00
<mgrwt>
<rscale>  1 0.10122032E+04</rscale>
<asrwt>0</asrwt>
<pdfrwt beam="1">  1        2 0.17492949E+00 0.10122032E+04</pdfrwt>
<pdfrwt beam="2">  1       -2 0.46179239E-01 0.10122032E+04</pdfrwt>
<totfact> 0.91633025E+01</totfact>
</mgrwt>
</event>
<event>
 6      1 +3.0741590e+01 1.00211200e+03 7.81860800e-03 9.30623200e-02
        1 -1    0    0  502    0 +0.0000000000e+00 +0.0000000000e+00 +1.0725568907e+03 1.0725568907e+03 0.0000000000e+00 0.0000e+00 -1.0000e+00
       -1 -1    0    0    0  501 -0.0000000000e+00 -0.0000000000e+00 -3.0414872306e+02 3.0414872306e+02 0.0000000000e+00 0.0000e+00 1.0000e+00
  5000001  2    1    2    0    0 -2.4072103812e+01 +1.8426030544e-01 +5.2348738944e+02 1.1306046432e+03 1.0018224953e+03 0.0000e+00 0.0000e+00
  5000521  1    3    3    0    0 -4.1117365149e+02 -1.6980203033e+02 -1.5834896581e+01 4.4524964361e+02 1.0000000000e+01 0.0000e+00 1.0000e+00
 -5000521  1    3    3    0    0 +3.8710154767e+02 +1.6998629064e+02 +5.3932228602e+02 6.8535499955e+02 1.0000000000e+01 0.0000e+00 -1.0000e+00
       21  1    1    2  502  501 +2.4072103812e+01 -1.8426030544e-01 +2.4492077823e+02 2.4610097063e+02 0.0000000000e+00 0.0000e+00 1.0000e+00
<mgrwt>
<rscale>  1 0.10021117E+04</rscale>
<asrwt>0</asrwt>
<pdfrwt beam="1">  1        1 0.16500875E+00 0.10021117E+04</pdfrwt>
<pdfrwt beam="2">  1       -1 0.46792112E-01 0.10021117E+04</pdfrwt>
<totfact> 0.60681062E+01</totfact>
</mgrwt>
</event>
<event>
 6      1 +3.0741590e+01 9.98232500e+02 7.81860800e-03 9.31048500e-02
        2 -1    0    0  502    0 +0.0000000000e+00 +0.0000000000e+00 +1.9850637319e+02 1.9850637319e+02 0.0000000000e+00 0.0000e+00 -1.0000e+00
       -2 -1    0    0    0  501 -0.0000000000e+00 -0.0000000000e+00 -1.4264128041e+03 1.4264128041e+03 0.0000000000e+00 0.0000e+00 1.0000e+00
  5000001  2    1    2    0    0 +2.0604336554e+01 -4.5622565313e+01 -1.0891151958e+03 1.4773760849e+03 9.9697654413e+02 0.0000e+00 0.0000e+00
  5000521  1    3    3    0    0 -1.3055537151e+02 -1.8445595899e+02 -1.2153447661e+03 1.2362166502e+03 1.0000000000e+01 0.0000e+00 1.0000e+00
 -5000521  1    3    3    0    0 +1.5115970806e+02 +1.3883339368e+02 +1.2622957030e+02 2.4115943473e+02 1.0000000000e+01 0.0000e+00 -1.0000e+00
       21  1    1    2  502  501 -2.0604336554e+01 +4.5622565313e+01 -1.3879123511e+02 1.4754309233e+02 0.0000000000e+00 0.0000e+00 1.0000e+00
<mgrwt>
<rscale>  1 0.99823253E+03</rscale>
<asrwt>0</asrwt>
<pdfrwt beam="1">  1        2 0.30539442E-01 0.99823253E+03</pdfrwt>
<pdfrwt beam="2">  1       -2 0.21944813E+00 0.99823253E+03</pdfrwt>
<totfact> 0.17401986E+01</totfact>
</mgrwt>
</event>
<event>
 6      1 +3.0741590e+01 1.01038900e+03 7.81860800e-03 9.29722300e-02
       21 -1    0    0  501  502 +0.0000000000e+00 +0.0000000000e+00 +1.5725237322e+02 1.5725237322e+02 0.0000000000e+00 0.0000e+00 -1.0000e+00
       -1 -1    0    0    0  501 -0.0000000000e+00 -0.0000000000e+00 -2.0865889946e+03 2.0865889946e+03 0.0000000000e+00 0.0000e+00 1.0000e+00
  5000001  2    1    2    0    0 -9.6278287047e+01 -8.9187784230e+01 -1.6422343709e+03 1.9281648377e+03 1.0018292984e+03 0.0000e+00 0.0000e+00
  5000521  1    3    3    0    0 +2.8216931805e+02 +2.9819640498e+02 -1.0402060827e+03 1.1183332752e+03 1.0000000000e+01 0.0000e+00 1.0000e+00
 -5000521  1    3    3    0    0 -3.7844760510e+02 -3.8738418921e+02 -6.0202828822e+02 8.0983156253e+02 1.0000000000e+01 0.0000e+00 -1.0000e+00
       -1  1    1    2    0  502 +9.6278287047e+01 +8.9187784230e+01 -2.8710225052e+02 3.1567653011e+02 0.0000000000e+00 0.0000e+00 1.0000e+00
<mgrwt>
<rscale>  1 0.10103890E+04</rscale>
<asrwt>0</asrwt>
<pdfrwt beam="1">  1       21 0.24192673E-01 0.10103890E+04</pdfrwt>
<pdfrwt beam="2">  1       -1 0.32101369E+00 0.10103890E+04</pdfrwt>
<totfact> 0.34650305E+01</totfact>
</mgrwt>
</event>
<event>
 6      1 +3.0741590e+01 1.25129300e+03 7.81860800e-03 9.06910700e-02
        3 -1    0    0  502    0 -0.0000000000e+00 +0.0000000000e+00 +6.6111107480e+02 6.6111107480e+02 0.0000000000e+00 0.0000e+00 1.0000e+00
       21 -1    0    0  501  502 +0.0000000000e+00 -0.0000000000e+00 -1.5976574977e+03 1.5976574977e+03 0.0000000000e+00 0.0000e+00 -1.0000e+00
  5000001  2    1    2    0    0 +5.5753855014e+02 -4.9172069712e+02 -8.4470017058e+02 1.5097197003e+03 1.0065270569e+03 0.0000e+00 0.0000e+00
  5000521  1    3    3    0    0 +2.2559077101e+02 +2.7059391454e+02 -4.9503701105e+02 6.0767911340e+02 1.0000000000e+01 0.0000e+00 -1.0000e+00
 -5000521  1    3    3    0    0 +3.3194777913e+02 -7.6231461167e+02 -3.4966315954e+02 9.0204058687e+02 1.0000000000e+01 0.0000e+00 1.0000e+00
        3  1    1    2  501    0 -5.5753855014e+02 +4.9172069712e+02 -9.1846252281e+01 7.4904887219e+02 0.0000000000e+00 0.0000e+00 1.0000e+00
<mgrwt>
<rscale>  1 0.12512934E+04</rscale>
<asrwt>0</asrwt>
<pdfrwt beam="1">  1       21 0.24579346E+00 0.12512934E+04</pdfrwt>
<pdfrwt beam="2">  1        3 0.10170940E+00 0.12512934E+04</pdfrwt>
<totfact> 0.20998749E+00</totfact>
</mgrwt>
</event>
<event>
 6      1 +3.0741590e+01 1.00777600e+03 7.81860800e-03 9.30005800e-02
       -2 -1    0    0    0  501 -0.0000000000e+00 +0.0000000000e+00 +7.6068660181e+02 7.6068660181e+02 0.0000000000e+00 0.0000e+00 -1.0000e+00
        2 -1    0    0  502    0 +0.0000000000e+00 -0.0000000000e+00 -4.5170903008e+02 4.5170903008e+02 0.0000000000e+00 0.0000e+00 1.0000e+00
  5000001  2    1    2    0    0 -2.3819486286e+01 -3.7343262679e+00 +4.2512314031e+02 1.0937739382e+03 1.0074871862e+03 0.0000e+00 0.0000e+00
  5000521  1    3    3    0    0 -5.1078157816e+02 +4.0368985861e+00 +1.4164479343e+02 5.3016729873e+02 1.0000000000e+01 0.0000e+00 1.0000e+00
 -5000521  1    3    3    0    0 +4.8696209188e+02 -7.7712248539e+00 +2.8347834688e+02 5.6360663943e+02 1.0000000000e+01 0.0000e+00 -1.0000e+00
       21  1    1    2  502  501 +2.3819486286e+01 +3.7343262679e+00 -1.1614556859e+02 1.1862169372e+02 0.0000000000e+00 0.0000e+00 -1.0000e+00
<mgrwt>
<rscale>  1 0.10077756E+04</rscale>
<asrwt>0</asrwt>
<pdfrwt beam="1">  1        2 0.69493697E-01 0.10077756E+04</pdfrwt>
<pdfrwt beam="2">  1       -2 0.11702871E+00 0.10077756E+04</pdfrwt>
<totfact> 0.38969488E+01</totfact>
</mgrwt>
</event>
<event>
 6      1 +3.0741590e+01 1.00285000e+03 7.81860800e-03 9.30542400e-02
        2 -1    0    0  502    0 +0.0000000000e+00 +0.0000000000e+00 +2.8461422967e+03 2.8461422967e+03 0.0000000000e+00 0.0000e+00 1.0000e+00
       -2 -1    0    0    0  501 -0.0000000000e+00 -0.0000000000e+00 -1.0054431178e+02 1.0054431178e+02 0.0000000000e+00 0.0000e+00 -1.0000e+00
  5000001  2    1    2    0    0 +5.3786276616e+00 -6.3731691289e+01 +2.6275853620e+03 2.8124568157e+03 1.0008085967e+03 0.0000e+00 0.0000e+00
  5000521  1    3    3    0    0 +4.1109199979e+02 +2.5376839378e+02 +1.1410420877e+03 1.2391416690e+03 1.0000000000e+01 0.0000e+00 -1.0000e+00
 -5000521  1    3    3    0    0 -4.0571337213e+02 -3.1750008507e+02 +1.4865432743e+03 1.5733151467e+03 1.0000000000e+01 0.0000e+00 1.0000e+00
       21  1    1    2  502  501 -5.3786276616e+00 +6.3731691289e+01 +1.1801262289e+02 1.3422979279e+02 0.0000000000e+00 0.0000e+00 -1.0000e+00
<mgrwt>
<rscale>  1 0.10028502E+04</rscale>
<asrwt>0</asrwt>
<pdfrwt beam="1">  1        2 0.43786798E+00 0.10028502E+04</pdfrwt>
<pdfrwt beam="2">  1       -2 0.15468358E-01 0.10028502E+04</pdfrwt>
<totfact> 0.73534462E+01</totfact>
</mgrwt>
</event>
<event>
 6      1 +3.0741590e+01 1.00576600e+03 7.81860800e-03 9.30224300e-02
       21 -1    0    0  501  502 +0.0000000000e+00 +0.0000000000e+00 +7.3218259482e+02 7.3218259482e+02 0.0000000000e+00 0.0000e+00 -1.0000e+00
        2 -1    0    0  502    0 -0.0000000000e+00 -0.0000000000e+00 -5.3672821995e+02 5.3672821995e+02 0.0000000000e+00 0.0000e+00 1.0000e+00
  5000001  2    1    2    0    0 +3.6673604204e+01 +6.9410398137e+01 -5.4179197779e+01 1.0072245958e+03 1.0026979826e+03 0.0000e+00 0.0000e+00
  5000521  1    3    3    0    0 +4.1265900857e+01 -1.5322923710e+02 -4.9138590361e+02 5.1647088974e+02 1.0000000000e+01 0.0000e+00 1.0000e+00
 -5000521  1    3    3    0    0 -4.5922966524e+00 +2.2263963523e+02 +4.3720670583e+02 4.9075370604e+02 1.0000000000e+01 0.0000e+00 -1.0000e+00
        2  1    1    2  501    0 -3.6673604204e+01 -6.9410398137e+01 +2.4963357265e+02 2.6168621899e+02 0.0000000000e+00 0.0000e+00 1.0000e+00
<mgrwt>
<rscale>  1 0.10057664E+04</rscale>
<asrwt>0</asrwt>
<pdfrwt beam="1">  1       21 0.11264348E+00 0.10057664E+04</pdfrwt>
<pdfrwt beam="2">  1        2 0.82573572E-01 0.10057664E+04</pdfrwt>
<totfact> 0.35954116E+02</totfact>
</mgrwt>
</event>
<event>
 6      1 +3.0741590e+01 1.00781400e+03 7.81860800e-03 9.30001500e-02
        2 -1    0    0  502    0 +0.0000000000e+00 +0.0000000000e+00 +2.5926771540e+03 2.5926771540e+03 0.0000000000e+00 0.0000e+00 1.0000e+00
       -2 -1    0    0    0  501 -0.0000000000e+00 -0.0000000000e+00 -1.4831040422e+02 1.4831040422e+02 0.0000000000e+00 0.0000e+00 -1.0000e+00
  5000001  2    1    2    0    0 -8.6561239826e+01 +1.6150137286e+01 +2.4535353810e+03 2.6524565525e+03 1.0039602692e+03 0.0000e+00 0.0000e+00
  5000521  1    3    3    0    0 -3.8959595592e+02 +9.4997714394e+01 +3.7070685269e+02 5.4619881476e+02 1.0000000000e+01 0.0000e+00 -1.0000e+00
 -5000521  1    3    3    0    0 +3.0303471609e+02 -7.8847577108e+01 +2.0828285283e+03 2.1062577378e+03 1.0000000000e+01 0.0000e+00 1.0000e+00
       21  1    1    2  502  501 +8.6561239826e+01 -1.6150137286e+01 -9.1686312087e+00 8.8531005714e+01 0.0000000000e+00 0.0000e+00 1.0000e+00
<mgrwt>
<rscale>  1 0.10078144E+04</rscale>
<asrwt>0</asrwt>
<pdfrwt beam="1">  1        2 0.39887337E+00 0.10078144E+04</pdfrwt>
<pdfrwt beam="2">  1       -2 0.22816987E-01 0.10078144E+04</pdfrwt>
<totfact> 0.52586419E+01</totfact>
</mgrwt>
</event>
<event>
 6      1 +3.0741590e+01 9.97912300e+02 7.81860800e-03 9.31083800e-02
        1 -1    0    0  502    0 +0.0000000000e+00 +0.0000000000e+00 +1.1288183021e+03 1.1288183021e+03 0.0000000000e+00 0.0000e+00 -1.0000e+00
       -1 -1    0    0    0  501 -0.0000000000e+00 -0.0000000000e+00 -3.3124822532e+02 3.3124822532e+02 0.0000000000e+00 0.0000e+00 1.0000e+00
  5000001  2    1    2    0    0 +2.5370994113e+01 +9.0815230262e+00 +4.2190406213e+02 1.0834352542e+03 9.9754837026e+02 0.0000e+00 0.0000e+00
  5000521  1    3    3    0    0 -3.8867460800e+02 -8.9440689666e+01 +5.1119334380e+02 6.4844909023e+02 1.0000000000e+01 0.0000e+00 -1.0000e+00
 -5000521  1    3    3    0    0 +4.1404560212e+02 +9.8522212693e+01 -8.9289281670e+01 4.3498616397e+02 1.0000000000e+01 0.0000e+00 1.0000e+00
       21  1    1    2  502  501 -2.5370994113e+01 -9.0815230262e+00 +3.7566601462e+02 3.7663127319e+02 0.0000000000e+00 0.0000e+00 1.0000e+00
<mgrwt>
<rscale>  1 0.99791228E+03</rscale>
<asrwt>0</asrwt>
<pdfrwt beam="1">  1        1 0.17366435E+00 0.99791228E+03</pdfrwt>
<pdfrwt beam="2">  1       -1 0.50961266E-01 0.99791228E+03</pdfrwt>
<totfact> 0.46837305E+01</totfact>
</mgrwt>
</event>
<event>
 6      1 +3.0741590e+01 9.92775900e+02 7.81860800e-03 9.31650400e-02
       -2 -1    0    0    0  501 -0.0000000000e+00 +0.0000000000e+00 +6.2149517712e+02 6.2149517712e+02 0.0000000000e+00 0.0000e+00 -1.0000e+00
        2 -1    0    0  502    0 +0.0000000000e+00 -0.0000000000e+00 -6.1160098040e+02 6.1160098040e+02 0.0000000000e+00 0.0000e+00 1.0000e+00
  5000001  2    1    2    0    0 -3.3347256477e+01 +8.8462082744e+00 -2.0645312196e+02 1.0140152199e+03 9.9217623423e+02 0.0000e+00 0.0000e+00
  5000521  1    3    3    0    0 -1.3933400208e+02 +2.3855527740e+02 -5.3323322579e+02 6.0063321387e+02 1.0000000000e+01 0.0000e+00 1.0000e+00
 -5000521  1    3    3    0    0 +1.0598674560e+02 -2.2970906912e+02 +3.2678010383e+02 4.1338200607e+02 1.0000000000e+01 0.0000e+00 -1.0000e+00
       21  1    1    2  502  501 +3.3347256477e+01 -8.8462082744e+00 +2.1634731868e+02 2.1908093759e+02 0.0000000000e+00 0.0000e+00 1.0000e+00
<mgrwt>
<rscale>  1 0.99277589E+03</rscale>
<asrwt>0</asrwt>
<pdfrwt beam="1">  1        2 0.94092459E-01 0.99277589E+03</pdfrwt>
<pdfrwt beam="2">  1       -2 0.95614642E-01 0.99277589E+03</pdfrwt>
<totfact> 0.44344800E+01</totfact>
</mgrwt>
</event>
<event>
 6      1 +3.0741590e+01 1.01149000e+03 7.81860800e-03 9.29603100e-02
        2 -1    0    0  502    0 +0.0000000000e+00 +0.0000000000e+00 +1.6302592865e+03 1.6302592865e+03 0.0000000000e+00 0.0000e+00 1.0000e+00
       -2 -1    0    0    0  501 -0.0000000000e+00 -0.0000000000e+00 -1.9394767168e+02 1.9394767168e+02 0.0000000000e+00 0.0000e+00 -1.0000e+00
  5000001  2    1    2    0    0 +8.4386239779e+01 +6.6629032727e+01 +1.3466086478e+03 1.6841816471e+03 1.0057596653e+03 0.0000e+00 0.0000e+00
  5000521  1    3    3    0    0 +4.9334937206e+02 -1.2552281363e+02 +9.7146030031e+02 1.0968065895e+03 1.0000000000e+01 0.0000e+00 1.0000e+00
 -5000521  1    3    3    0    0 -4.0896313228e+02 +1.9215184636e+02 +3.7514834752e+02 5.8737505758e+02 1.0000000000e+01 0.0000e+00 -1.0000e+00
       21  1    1    2  502  501 -8.4386239779e+01 -6.6629032727e+01 +8.9702966994e+01 1.4002531112e+02 0.0000000000e+00 0.0000e+00 1.0000e+00
<mgrwt>
<rscale>  1 0.10114905E+04</rscale>
<asrwt>0</asrwt>
<pdfrwt beam="1">  1        2 0.25080911E+00 0.10114905E+04</pdfrwt>
<pdfrwt beam="2">  1       -2 0.29838104E-01 0.10114905E+04</pdfrwt>
<totfact> 0.11091148E+02</totfact>
</mgrwt>
</event>
<event>
 6      1 +3.0741590e+01 9.75414200e+02 7.81860800e-03 9.33592900e-02
       -1 -1    0    0    0  501 -0.0000000000e+00 +0.0000000000e+00 +3.9524154294e+02 3.9524154294e+02 0.0000000000e+00 0.0000e+00 -1.0000e+00
        1 -1    0    0  502    0 +0.0000000000e+00 -0.0000000000e+00 -9.3428375123e+02 9.3428375123e+02 0.0000000000e+00 0.0000e+00 1.0000e+00
  5000001  2    1    2    0    0 -4.5218431509e+01 -1.6347391556e+01 -6.7441828205e+02 1.1858637993e+03 9.7422840628e+02 0.0000e+00 0.0000e+00
  5000521  1    3    3    0    0 +3.3068648150e+02 +8.8135301563e+01 +6.6187509188e+01 3.4871502233e+02 1.0000000000e+01 0.0000e+00 -1.0000e+00
 -5000521  1    3    3    0    0 -3.7590491301e+02 -1.0448269312e+02 -7.4060579124e+02 8.3714877698e+02 1.0000000000e+01 0.0000e+00 1.0000e+00
       21  1    1    2  502  501 +4.5218431509e+01 +1.6347391556e+01 +1.3537607376e+02 1.4366149486e+02 0.0000000000e+00 0.0000e+00 -1.0000e+00
<mgrwt>
<rscale>  1 0.97541424E+03</rscale>
<asrwt>0</asrwt>
<pdfrwt beam="1">  1        1 0.14373596E+00 0.97541424E+03</pdfrwt>
<pdfrwt beam="2">  1       -1 0.60806392E-01 0.97541424E+03</pdfrwt>
<totfact> 0.47016179E+01</totfact>
</mgrwt>
</event>
<event>
 6      1 +3.0741590e+01 1.00101400e+03 7.81860800e-03 9.30743300e-02
       -1 -1    0    0    0  501 -0.0000000000e+00 +0.0000000000e+00 +1.9471207793e+03 1.9471207793e+03 0.0000000000e+00 0.0000e+00 1.0000e+00
        1 -1    0    0  502    0 +0.0000000000e+00 -0.0000000000e+00 -1.6497824387e+02 1.6497824387e+02 0.0000000000e+00 0.0000e+00 -1.0000e+00
  5000001  2    1    2    0    0 +2.3460293053e+01 +1.2883075167e+01 +1.8131602841e+03 2.0711300140e+03 1.0006562647e+03 0.0000e+00 0.0000e+00
  5000521  1    3    3    0    0 +1.8709842380e+02 -4.3257142467e+02 +5.6542827525e+02 7.3616098245e+02 1.0000000000e+01 0.0000e+00 -1.0000e+00
 -5000521  1    3    3    0    0 -1.6363813075e+02 +4.4545449984e+02 +1.2477320089e+03 1.3349690316e+03 1.0000000000e+01 0.0000e+00 1.0000e+00
       21  1    1    2  502  501 -2.3460293053e+01 -1.2883075167e+01 -3.1017748700e+01 4.0969009145e+01 0.0000000000e+00 0.0000e+00 1.0000e+00
<mgrwt>
<rscale>  1 0.10010141E+04</rscale>
<asrwt>0</asrwt>
<pdfrwt beam="1">  1        1 0.25381270E-01 0.10010141E+04</pdfrwt>
<pdfrwt beam="2">  1       -1 0.29955703E+00 0.10010141E+04</pdfrwt>
<totfact> 0.64570448E+00</totfact>
</mgrwt>
</event>
<event>
 6      1 +3.0741590e+01 1.01552600e+03 7.81860800e-03 9.29167900e-02
       21 -1    0    0  501  502 +0.0000000000e+00 +0.0000000000e+00 +6.0486392087e+02 6.0486392087e+02 0.0000000000e+00 0.0000e+00 -1.0000e+00
       -5 -1    0    0    0  501 -0.0000000000e+00 -0.0000000000e+00 -9.6102846404e+02 9.6102846404e+02 0.0000000000e+00 0.0000e+00 -1.0000e+00
  5000001  2    1    2    0    0 +1.2269686214e+02 -6.0740985600e+01 +1.6340444745e+02 1.0285880733e+03 1.0062546515e+03 0.0000e+00 0.0000e+00
  5000521  1    3    3    0    0 +1.5039313094e+02 -4.8149347883e+02 -1.2230695478e+02 5.1914646794e+02 1.0000000000e+01 0.0000e+00 1.0000e+00
 -5000521  1    3    3    0    0 -2.7696268794e+01 +4.2075249323e+02 +2.8571140223e+02 5.0944160532e+02 1.0000000000e+01 0.0000e+00 -1.0000e+00
       -5  1    1    2    0  502 -1.2269686214e+02 +6.0740985600e+01 -5.1956899061e+02 5.3730431165e+02 0.0000000000e+00 0.0000e+00 -1.0000e+00
<mgrwt>
<rscale>  1 0.10155257E+04</rscale>
<asrwt>0</asrwt>
<pdfrwt beam="1">  1       21 0.93055989E-01 0.10155257E+04</pdfrwt>
<pdfrwt beam="2">  1       -5 0.14785053E+00 0.10155257E+04</pdfrwt>
<totfact> 0.69905883E+00</totfact>
</mgrwt>
</event>
<event>
 6      1 +3.0741590e+01 1.03007900e+03 7.81860800e-03 9.27615700e-02
       21 -1    0    0  501  502 +0.0000000000e+00 +0.0000000000e+00 +2.1986573391e+02 2.1986573391e+02 0.0000000000e+00 0.0000e+00 -1.0000e+00
        2 -1    0    0  502    0 -0.0000000000e+00 -0.0000000000e+00 -4.8842971022e+03 4.8842971022e+03 0.0000000000e+00 0.0000e+00 -1.0000e+00
  5000001  2    1    2    0    0 +1.1875231798e+00 -6.2900481448e+01 -4.8239416020e+03 4.9326944850e+03 1.0281558353e+03 0.0000e+00 0.0000e+00
  5000521  1    3    3    0    0 -7.0366743442e+01 -2.0858877101e+02 -4.7481836105e+03 4.7532944737e+03 1.0000000000e+01 0.0000e+00 -1.0000e+00
 -5000521  1    3    3    0    0 +7.1554266622e+01 +1.4568828956e+02 -7.5757991485e+01 1.7940001132e+02 1.0000000000e+01 0.0000e+00 1.0000e+00
        2  1    1    2  501    0 -1.1875231798e+00 +6.2900481448e+01 +1.5951023373e+02 1.7146835114e+02 0.0000000000e+00 0.0000e+00 -1.0000e+00
<mgrwt>
<rscale>  1 0.10300788E+04</rscale>
<asrwt>0</asrwt>
<pdfrwt beam="1">  1       21 0.33825498E-01 0.10300788E+04</pdfrwt>
<pdfrwt beam="2">  1        2 0.75143032E+00 0.10300788E+04</pdfrwt>
<totfact> 0.49791646E+00</totfact>
</mgrwt>
</event>
<event>
 6      1 +3.0741590e+01 1.00146300e+03 7.81860800e-03 9.30694100e-02
        1 -1    0    0  502    0 +0.0000000000e+00 +0.0000000000e+00 +5.5452704747e+02 5.5452704747e+02 0.0000000000e+00 0.0000e+00 -1.0000e+00
       -1 -1    0    0    0  501 -0.0000000000e+00 -0.0000000000e+00 -5.9881371006e+02 5.9881371006e+02 0.0000000000e+00 0.0000e+00 1.0000e+00
  5000001  2    1    2    0    0 -4.4217754327e+01 -1.5254812977e+01 -1.7308600007e+02 1.0163108759e+03 1.0003704884e+03 0.0000e+00 0.0000e+00
  5000521  1    3    3    0    0 +5.3776708468e+01 +2.9828412814e+02 +3.0894019252e+02 4.3290807111e+02 1.0000000000e+01 0.0000e+00 -1.0000e+00
 -5000521  1    3    3    0    0 -9.7994462794e+01 -3.1353894112e+02 -4.8202619259e+02 5.8340280483e+02 1.0000000000e+01 0.0000e+00 1.0000e+00
       21  1    1    2  502  501 +4.4217754327e+01 +1.5254812977e+01 +1.2879933747e+02 1.3702988160e+02 0.0000000000e+00 0.0000e+00 1.0000e+00
<mgrwt>
<rscale>  1 0.10014634E+04</rscale>
<asrwt>0</asrwt>
<pdfrwt beam="1">  1        1 0.85311853E-01 0.10014634E+04</pdfrwt>
<pdfrwt beam="2">  1       -1 0.92125186E-01 0.10014634E+04</pdfrwt>
<totfact> 0.44102213E+01</totfact>
</mgrwt>
</event>
<event>
 6      1 +3.0741590e+01 9.75310900e+02 7.81860800e-03 9.33604600e-02
       -2 -1    0    0    0  501 -0.0000000000e+00 +0.0000000000e+00 +1.5651837315e+02 1.5651837315e+02 0.0000000000e+00 0.0000e+00 1.0000e+00
        2 -1    0    0  502    0 +0.0000000000e+00 -0.0000000000e+00 -1.8070561142e+03 1.8070561142e+03 0.0000000000e+00 0.0000e+00 -1.0000e+00
  5000001  2    1    2    0    0 +1.9143877315e+01 +3.6412697254e+01 -1.6562102656e+03 1.9220467846e+03 9.7444293099e+02 0.0000e+00 0.0000e+00
  5000521  1    3    3    0    0 +1.7542941648e+02 -1.2340922155e+02 -1.6830426941e+03 1.6966844215e+03 1.0000000000e+01 0.0000e+00 -1.0000e+00
 -5000521  1    3    3    0    0 -1.5628553917e+02 +1.5982191880e+02 +2.6832428460e+01 2.2536236310e+02 1.0000000000e+01 0.0000e+00 1.0000e+00
       21  1    1    2  502  501 -1.9143877315e+01 -3.6412697254e+01 +5.6725245585e+00 4.1527702739e+01 0.0000000000e+00 0.0000e+00 -1.0000e+00
<mgrwt>
<rscale>  1 0.97531092E+03</rscale>
<asrwt>0</asrwt>
<pdfrwt beam="1">  1        2 0.27800863E+00 0.97531092E+03</pdfrwt>
<pdfrwt beam="2">  1       -2 0.24079750E-01 0.97531092E+03</pdfrwt>
<totfact> 0.13153777E+02</totfact>
</mgrwt>
</event>
<event>
 6      1 +3.0741590e+01 9.53655800e+02 7.81860800e-03 9.36088800e-02
       -2 -1    0    0    0  501 -0.0000000000e+00 +0.0000000000e+00 +2.4825063598e+03 2.4825063598e+03 0.0000000000e+00 0.0000e+00 1.0000e+00
        2 -1    0    0  502    0 +0.0000000000e+00 -0.0000000000e+00 -2.1272868007e+02 2.1272868007e+02 0.0000000000e+00 0.0000e+00 -1.0000e+00
  5000001  2    1    2    0    0 -2.5856674288e+01 +2.6678772246e+01 +2.3879631931e+03 2.5713474293e+03 9.5293182649e+02 0.0000e+00 0.0000e+00
  5000521  1    3    3    0    0 +3.6957533322e+02 -2.2279633358e+02 +1.5789769228e+03 1.6369154700e+03 1.0000000000e+01 0.0000e+00 1.0000e+00
 -5000521  1    3    3    0    0 -3.9543200751e+02 +2.4947510583e+02 +8.0898627033e+02 9.3443195930e+02 1.0000000000e+01 0.0000e+00 -1.0000e+00
       21  1    1    2  502  501 +2.5856674288e+01 -2.6678772246e+01 -1.1818551336e+02 1.2388761061e+02 0.0000000000e+00 0.0000e+00 -1.0000e+00
<mgrwt>
<rscale>  1 0.95365580E+03</rscale>
<asrwt>0</asrwt>
<pdfrwt beam="1">  1        2 0.32727491E-01 0.95365580E+03</pdfrwt>
<pdfrwt beam="2">  1       -2 0.38192404E+00 0.95365580E+03</pdfrwt>
<totfact> 0.16141269E+00</totfact>
</mgrwt>
</event>
<event>
 6      1 +3.0741590e+01 1.00083000e+03 7.81860800e-03 9.30763500e-02
       -1 -1    0    0    0  501 -0.0000000000e+00 +0.0000000000e+00 +2.5075600938e+02 2.5075600938e+02 0.0000000000e+00 0.0000e+00 1.0000e+00
        1 -1    0    0  502    0 +0.0000000000e+00 -0.0000000000e+00 -1.2675289566e+03 1.2675289566e+03 0.0000000000e+00 0.0000e+00 -1.0000e+00
  5000001  2    1    2    0    0 -2.3819207567e+01 +7.3556027257e+00 -1.0665608065e+03 1.4626047139e+03 1.0005194329e+03 0.0000e+00 0.0000e+00
  5000521  1    3    3    0    0 -1.9027073065e+01 -4.4304384392e+02 -2.0136468004e+02 4.8713202678e+02 1.0000000000e+01 0.0000e+00 1.0000e+00
 -5000521  1    3    3    0    0 -4.7921345017e+00 +4.5039944665e+02 -8.6519612646e+02 9.7547268713e+02 1.0000000000e+01 0.0000e+00 -1.0000e+00
       21  1    1    2  502  501 +2.3819207567e+01 -7.3556027257e+00 +4.9787859271e+01 5.5680252077e+01 0.0000000000e+00 0.0000e+00 1.0000e+00
<mgrwt>
<rscale>  1 0.10008300E+04</rscale>
<asrwt>0</asrwt>
<pdfrwt beam="1">  1        1 0.19500446E+00 0.10008300E+04</pdfrwt>
<pdfrwt beam="2">  1       -1 0.38577846E-01 0.10008300E+04</pdfrwt>
<totfact> 0.62281481E+01</totfact>
</mgrwt>
</event>
<event>
 6      1 +3.0741590e+01 1.00819600e+03 7.81860800e-03 9.29960200e-02
        2 -1    0    0  502    0 +0.0000000000e+00 +0.0000000000e+00 +7.9748199115e+02 7.9748199115e+02 0.0000000000e+00 0.0000e+00 -1.0000e+00
       -2 -1    0    0    0  501 -0.0000000000e+00 -0.0000000000e+00 -4.3807610911e+02 4.3807610911e+02 0.0000000000e+00 0.0000e+00 1.0000e+00
  5000001  2    1    2    0    0 +3.7028996552e+01 -1.1604556416e+02 +4.2854407948e+02 1.0954945079e+03 1.0008099067e+03 0.0000e+00 0.0000e+00
  5000521  1    3    3    0    0 -3.6315289107e+02 -3.1420846382e+01 +5.5779567292e+02 6.6641076268e+02 1.0000000000e+01 0.0000e+00 -1.0000e+00
 -5000521  1    3    3    0    0 +4.0018188763e+02 -8.4624717776e+01 -1.2925159344e+02 4.2908374526e+02 1.0000000000e+01 0.0000e+00 1.0000e+00
       21  1    1    2  502  501 -3.7028996552e+01 +1.1604556416e+02 -6.9138197445e+01 1.4006359232e+02 0.0000000000e+00 0.0000e+00 -1.0000e+00
<mgrwt>
<rscale>  1 0.10081955E+04</rscale>
<asrwt>0</asrwt>
<pdfrwt beam="1">  1        2 0.12268954E+00 0.10081955E+04</pdfrwt>
<pdfrwt beam="2">  1       -2 0.67396325E-01 0.10081955E+04</pdfrwt>
<totfact> 0.69621368E+01</totfact>
</mgrwt>
</event>
<event>
 6      1 +3.0741590e+01 9.97853600e+02 7.81860800e-03 9.31090200e-02
       -2 -1    0    0    0  501 -0.0000000000e+00 +0.0000000000e+00 +3.1286375791e+02 3.1286375791e+02 0.0000000000e+00 0.0000e+00 1.0000e+00
        2 -1    0    0  502    0 +0.0000000000e+00 -0.0000000000e+00 -1.8419824403e+03 1.8419824403e+03 0.0000000000e+00 0.0000e+00 -1.0000e+00
  5000001  2    1    2    0    0 -4.2012861813e+01 -2.7093110677e+01 -1.7030617155e+03 1.9738619558e+03 9.9660057021e+02 0.0000e+00 0.0000e+00
  5000521  1    3    3    0    0 +7.5739679399e+01 -4.8278899244e+02 -5.9560427460e+02 7.7049734729e+02 1.0000000000e+01 0.0000e+00 -1.0000e+00
 -5000521  1    3    3    0    0 -1.1775254121e+02 +4.5569588176e+02 -1.1074574409e+03 1.2033646085e+03 1.0000000000e+01 0.0000e+00 1.0000e+00
       21  1    1    2  502  501 +4.2012861813e+01 +2.7093110677e+01 +1.7394303316e+02 1.8098424237e+02 0.0000000000e+00 0.0000e+00 1.0000e+00
<mgrwt>
<rscale>  1 0.99785360E+03</rscale>
<asrwt>0</asrwt>
<pdfrwt beam="1">  1        2 0.28338191E+00 0.99785360E+03</pdfrwt>
<pdfrwt beam="2">  1       -2 0.48132887E-01 0.99785360E+03</pdfrwt>
<totfact> 0.33517636E+01</totfact>
</mgrwt>
</event>
<event>
 6      1 +3.0741590e+01 9.85736200e+02 7.81860800e-03 9.32432900e-02
       -2 -1    0    0    0  501 -0.0000000000e+00 +0.0000000000e+00 +3.4170761806e+02 3.4170761806e+02 0.0000000000e+00 0.0000e+00 1.0000e+00
        2 -1    0    0  502    0 +0.0000000000e+00 -0.0000000000e+00 -1.0192844650e+03 1.0192844650e+03 0.0000000000e+00 0.0000e+00 -1.0000e+00
  5000001  2    1    2    0    0 -1.0789144552e+02 -2.1979988251e+01 -4.0258791820e+02 1.0647783176e+03 9.7956732792e+02 0.0000e+00 0.0000e+00
  5000521  1    3    3    0    0 -1.3319119060e+02 +1.5977255480e+02 +2.8504401230e+02 3.5301168744e+02 1.0000000000e+01 0.0000e+00 1.0000e+00
 -5000521  1    3    3    0    0 +2.5299745088e+01 -1.8175254305e+02 -6.8763193051e+02 7.1176663019e+02 1.0000000000e+01 0.0000e+00 -1.0000e+00
       21  1    1    2  502  501 +1.0789144552e+02 +2.1979988251e+01 -2.7498892875e+02 2.9621376544e+02 0.0000000000e+00 0.0000e+00 1.0000e+00
<mgrwt>
<rscale>  1 0.98573619E+03</rscale>
<asrwt>0</asrwt>
<pdfrwt beam="1">  1        2 0.15681299E+00 0.98573619E+03</pdfrwt>
<pdfrwt beam="2">  1       -2 0.52570404E-01 0.98573619E+03</pdfrwt>
<totfact> 0.83442645E+01</totfact>
</mgrwt>
</event>
<event>
 6      1 +3.0741590e+01 9.97706300e+02 7.81860800e-03 9.31106400e-02
        1 -1    0    0  502    0 -0.0000000000e+00 +0.0000000000e+00 +1.9276030019e+02 1.9276030019e+02 0.0000000000e+00 0.0000e+00 -1.0000e+00
       21 -1    0    0  501  502 +0.0000000000e+00 -0.0000000000e+00 -2.2252466937e+03 2.2252466937e+03 0.0000000000e+00 0.0000e+00 1.0000e+00
  5000001  2    1    2    0    0 -5.9871144340e+00 +6.4812163623e+01 -1.1070890998e+03 1.4903235277e+03 9.9558097633e+02 0.0000e+00 0.0000e+00
  5000521  1    3    3    0    0 +5.7382613371e+01 -1.8723992645e+01 -1.2834481262e+03 1.2849056171e+03 1.0000000000e+01 0.0000e+00 1.0000e+00
 -5000521  1    3    3    0    0 -6.3369727805e+01 +8.3536156267e+01 +1.7635902643e+02 2.0541791064e+02 1.0000000000e+01 0.0000e+00 -1.0000e+00
        1  1    1    2  501    0 +5.9871144340e+00 -6.4812163623e+01 -9.2539729379e+02 9.2768346619e+02 0.0000000000e+00 0.0000e+00 -1.0000e+00
<mgrwt>
<rscale>  1 0.99770634E+03</rscale>
<asrwt>0</asrwt>
<pdfrwt beam="1">  1       21 0.34234565E+00 0.99770634E+03</pdfrwt>
<pdfrwt beam="2">  1        1 0.29655430E-01 0.99770634E+03</pdfrwt>
<totfact> 0.21536919E+01</totfact>
</mgrwt>
</event>
<event>
 6      1 +3.0741590e+01 1.00272500e+03 7.81860800e-03 9.30556100e-02
        2 -1    0    0  502    0 +0.0000000000e+00 +0.0000000000e+00 +1.0101905554e+03 1.0101905554e+03 0.0000000000e+00 0.0000e+00 -1.0000e+00
       -2 -1    0    0    0  501 -0.0000000000e+00 -0.0000000000e+00 -6.3790843772e+02 6.3790843772e+02 0.0000000000e+00 0.0000e+00 1.0000e+00
  5000001  2    1    2    0    0 -4.8771689648e+01 -1.2599206606e+01 -2.4219535629e+02 1.0315602808e+03 1.0014592376e+03 0.0000e+00 0.0000e+00
  5000521  1    3    3    0    0 +4.4362792966e+02 +1.4976892183e+02 -2.3993983829e+01 4.6894795146e+02 1.0000000000e+01 0.0000e+00 1.0000e+00
 -5000521  1    3    3    0    0 -4.9239961931e+02 -1.6236812843e+02 -2.1820137246e+02 5.6261232938e+02 1.0000000000e+01 0.0000e+00 -1.0000e+00
       21  1    1    2  502  501 +4.8771689648e+01 +1.2599206606e+01 +6.1447747399e+02 6.1653871230e+02 0.0000000000e+00 0.0000e+00 -1.0000e+00
<mgrwt>
<rscale>  1 0.10027253E+04</rscale>
<asrwt>0</asrwt>
<pdfrwt beam="1">  1        2 0.15541393E+00 0.10027253E+04</pdfrwt>
<pdfrwt beam="2">  1       -2 0.98139759E-01 0.10027253E+04</pdfrwt>
<totfact> 0.21295877E+01</totfact>
</mgrwt>
</event>
<event>
 6      1 +3.0741590e+01 1.00012100e+03 7.81860800e-03 9.30841200e-02
        2 -1    0    0  502    0 +0.0000000000e+00 +0.0000000000e+00 +1.9593859658e+03 1.9593859658e+03 0.0000000000e+00 0.0000e+00 1.0000e+00
       -2 -1    0    0    0  501 -0.0000000000e+00 -0.0000000000e+00 -1.3294931056e+02 1.3294931056e+02 0.0000000000e+00 0.0000e+00 -1.0000e+00
  5000001  2    1    2    0    0 -1.1441800282e+01 +1.6668154684e+01 +1.7808453889e+03 2.0424623805e+03 9.9991676375e+02 0.0000e+00 0.0000e+00
  5000521  1    3    3    0    0 -3.0561307629e+02 -2.0352924255e+02 +1.5829047729e+03 1.6249649304e+03 1.0000000000e+01 0.0000e+00 1.0000e+00
 -5000521  1    3    3    0    0 +2.9417127601e+02 +2.2019739724e+02 +1.9794061600e+02 4.1749745010e+02 1.0000000000e+01 0.0000e+00 -1.0000e+00
       21  1    1    2  502  501 +1.1441800282e+01 -1.6668154684e+01 +4.5591266350e+01 4.9872895862e+01 0.0000000000e+00 0.0000e+00 -1.0000e+00
<mgrwt>
<rscale>  1 0.10001211E+04</rscale>
<asrwt>0</asrwt>
<pdfrwt beam="1">  1        2 0.30144398E+00 0.10001211E+04</pdfrwt>
<pdfrwt beam="2">  1       -2 0.20453741E-01 0.10001211E+04</pdfrwt>
<totfact> 0.14483224E+02</totfact>
</mgrwt>
</event>
<event>
 6      1 +3.0741590e+01 1.00674100e+03 7.81860800e-03 9.30118200e-02
       -3 -1    0    0    0  501 -0.0000000000e+00 +0.0000000000e+00 +3.2344855892e+02 3.2344855892e+02 0.0000000000e+00 0.0000e+00 1.0000e+00
       21 -1    0    0  501  502 +0.0000000000e+00 -0.0000000000e+00 -8.8761486708e+02 8.8761486708e+02 0.0000000000e+00 0.0000e+00 -1.0000e+00
  5000001  2    1    2    0    0 +5.1884242231e+01 +3.2766670746e+01 -5.5322193200e+02 1.1487303796e+03 1.0048688221e+03 0.0000e+00 0.0000e+00
  5000521  1    3    3    0    0 -1.8747136547e+02 -4.3801842978e+02 -2.2673634808e+02 5.2774523137e+02 1.0000000000e+01 0.0000e+00 1.0000e+00
 -5000521  1    3    3    0    0 +2.3935560770e+02 +4.7078510053e+02 -3.2648558391e+02 6.2098514823e+02 1.0000000000e+01 0.0000e+00 -1.0000e+00
       -3  1    1    2    0  502 -5.1884242231e+01 -3.2766670746e+01 -1.0944376168e+01 6.2333046399e+01 0.0000000000e+00 0.0000e+00 1.0000e+00
<mgrwt>
<rscale>  1 0.10067408E+04</rscale>
<asrwt>0</asrwt>
<pdfrwt beam="1">  1       21 0.13655613E+00 0.10067408E+04</pdfrwt>
<pdfrwt beam="2">  1       -3 0.49761316E-01 0.10067408E+04</pdfrwt>
<totfact> 0.64401561E+01</totfact>
</mgrwt>
</event>
<event>
 6      1 +3.0741590e+01 9.92645300e+02 7.81860800e-03 9.31664800e-02
       -1 -1    0    0    0  501 -0.0000000000e+00 +0.0000000000e+00 +1.4606169104e+02 1.4606169104e+02 0.0000000000e+00 0.0000e+00 1.0000e+00
        1 -1    0    0  502    0 +0.0000000000e+00 -0.0000000000e+00 -1.8707272348e+03 1.8707272348e+03 0.0000000000e+00 0.0000e+00 -1.0000e+00
  5000001  2    1    2    0    0 -2.3747414409e+01 +4.3150946348e+01 -1.6736270344e+03 1.9458602765e+03 9.9142262503e+02 0.0000e+00 0.0000e+00
  5000521  1    3    3    0    0 -4.1437583191e+02 +1.6742343169e+02 -3.7325682429e+02 5.8237324151e+02 1.0000000000e+01 0.0000e+00 1.0000e+00
 -5000521  1    3    3    0    0 +3.9062841750e+02 -1.2427248534e+02 -1.3003702101e+03 1.3634870350e+03 1.0000000000e+01 0.0000e+00 -1.0000e+00
       21  1    1    2  502  501 +2.3747414409e+01 -4.3150946348e+01 -5.1038509333e+01 7.0928649337e+01 0.0000000000e+00 0.0000e+00 1.0000e+00
<mgrwt>
<rscale>  1 0.99264534E+03</rscale>
<asrwt>0</asrwt>
<pdfrwt beam="1">  1        1 0.28780417E+00 0.99264534E+03</pdfrwt>
<pdfrwt beam="2">  1       -1 0.22471031E-01 0.99264534E+03</pdfrwt>
<totfact> 0.61699825E+01</totfact>
</mgrwt>
</event>
<event>
 6      1 +3.0741590e+01 1.01512900e+03 7.81860800e-03 9.29210600e-02
        2 -1    0    0  502    0 +0.0000000000e+00 +0.0000000000e+00 +8.4189343937e+02 8.4189343937e+02 0.0000000000e+00 0.0000e+00 -1.0000e+00
       -2 -1    0    0    0  501 -0.0000000000e+00 -0.0000000000e+00 -4.6122624656e+02 4.6122624656e+02 0.0000000000e+00 0.0000e+00 1.0000e+00
  5000001  2    1    2    0    0 +1.1015462114e+02 +1.6465308613e+02 +1.9924779907e+02 1.0344978779e+03 9.9561111616e+02 0.0000e+00 0.0000e+00
  5000521  1    3    3    0    0 +2.8484325108e+02 -1.7806341914e+02 +4.5999021562e+02 5.6967820512e+02 1.0000000000e+01 0.0000e+00 -1.0000e+00
 -5000521  1    3    3    0    0 -1.7468862994e+02 +3.4271650527e+02 -2.6074241655e+02 4.6481967278e+02 1.0000000000e+01 0.0000e+00 1.0000e+00
       21  1    1    2  502  501 -1.1015462114e+02 -1.6465308613e+02 +1.8141939373e+02 2.6862180804e+02 0.0000000000e+00 0.0000e+00 -1.0000e+00
<mgrwt>
<rscale>  1 0.10151286E+04</rscale>
<asrwt>0</asrwt>
<pdfrwt beam="1">  1        2 0.12952207E+00 0.10151286E+04</pdfrwt>
<pdfrwt beam="2">  1       -2 0.70957884E-01 0.10151286E+04</pdfrwt>
<totfact> 0.57792694E+01</totfact>
</mgrwt>
</event>
<event>
 6      1 +3.0741590e+01 1.06324300e+03 7.81860800e-03 9.24177700e-02
        1 -1    0    0  502    0 +0.0000000000e+00 +0.0000000000e+00 +1.3611813319e+03 1.3611813319e+03 0.0000000000e+00 0.0000e+00 1.0000e+00
       -1 -1    0    0    0  501 -0.0000000000e+00 -0.0000000000e+00 -9.0944095194e+02 9.0944095194e+02 0.0000000000e+00 0.0000e+00 -1.0000e+00
  5000001  2    1    2    0    0 +1.9177274170e+02 +3.2051348924e+02 +1.0953255809e+03 1.5265069756e+03 9.9547965181e+02 0.0000e+00 0.0000e+00
  5000521  1    3    3    0    0 -3.0782481764e+02 +3.1311705096e+02 +8.7763948397e+02 9.8140178814e+02 1.0000000000e+01 0.0000e+00 1.0000e+00
 -5000521  1    3    3    0    0 +4.9959755934e+02 +7.3964382844e+00 +2.1768609691e+02 5.4510518745e+02 1.0000000000e+01 0.0000e+00 -1.0000e+00
       21  1    1    2  502  501 -1.9177274170e+02 -3.2051348924e+02 -6.4358520087e+02 7.4411530828e+02 0.0000000000e+00 0.0000e+00 -1.0000e+00
<mgrwt>
<rscale>  1 0.10632429E+04</rscale>
<asrwt>0</asrwt>
<pdfrwt beam="1">  1        1 0.20941251E+00 0.10632429E+04</pdfrwt>
<pdfrwt beam="2">  1       -1 0.13991399E+00 0.10632429E+04</pdfrwt>
<totfact> 0.34235692E+00</totfact>
</mgrwt>
</event>
<event>
 6      1 +3.0741590e+01 1.01254700e+03 7.81860800e-03 9.29488900e-02
       -1 -1    0    0    0  501 -0.0000000000e+00 +0.0000000000e+00 +3.4511922313e+02 3.4511922313e+02 0.0000000000e+00 0.0000e+00 1.0000e+00
        1 -1    0    0  502    0 +0.0000000000e+00 -0.0000000000e+00 -8.0683054747e+02 8.0683054747e+02 0.0000000000e+00 0.0000e+00 -1.0000e+00
  5000001  2    1    2    0    0 +1.2011001360e+01 +1.9720602653e+01 -4.8181194757e+02 1.1213360257e+03 1.0122838354e+03 0.0000e+00 0.0000e+00
  5000521  1    3    3    0    0 -3.9940939487e+02 +1.6654456093e+02 -5.2709035013e+02 6.8204779355e+02 1.0000000000e+01 0.0000e+00 -1.0000e+00
 -5000521  1    3    3    0    0 +4.1142039623e+02 -1.4682395827e+02 +4.5278402559e+01 4.3928823214e+02 1.0000000000e+01 0.0000e+00 1.0000e+00
       21  1    1    2  502  501 -1.2011001360e+01 -1.9720602653e+01 +2.0100623228e+01 3.0613744900e+01 0.0000000000e+00 0.0000e+00 -1.0000e+00
<mgrwt>
<rscale>  1 0.10125471E+04</rscale>
<asrwt>0</asrwt>
<pdfrwt beam="1">  1        1 0.12412778E+00 0.10125471E+04</pdfrwt>
<pdfrwt beam="2">  1       -1 0.53095265E-01 0.10125471E+04</pdfrwt>
<totfact> 0.78138642E+01</totfact>
</mgrwt>
</event>
<event>
 6      1 +3.0741590e+01 9.99853300e+02 7.81860800e-03 9.30870600e-02
        2 -1    0    0  502    0 +0.0000000000e+00 +0.0000000000e+00 +2.7366690451e+03 2.7366690451e+03 0.0000000000e+00 0.0000e+00 -1.0000e+00
       -2 -1    0    0    0  501 -0.0000000000e+00 -0.0000000000e+00 -1.4616626189e+02 1.4616626189e+02 0.0000000000e+00 0.0000e+00 1.0000e+00
  5000001  2    1    2    0    0 +1.0015823808e+02 +1.8743126617e+01 +2.5948776025e+03 2.7808445403e+03 9.9464747911e+02 0.0000e+00 0.0000e+00
  5000521  1    3    3    0    0 -1.5623490538e+02 +1.8350705824e+02 +2.4145752495e+03 2.4265938724e+03 1.0000000000e+01 0.0000e+00 -1.0000e+00
 -5000521  1    3    3    0    0 +2.5639314346e+02 -1.6476393163e+02 +1.8030235299e+02 3.5425066785e+02 1.0000000000e+01 0.0000e+00 1.0000e+00
       21  1    1    2  502  501 -1.0015823808e+02 -1.8743126617e+01 -4.3748193029e+00 1.0199076671e+02 0.0000000000e+00 0.0000e+00 1.0000e+00
<mgrwt>
<rscale>  1 0.99985328E+03</rscale>
<asrwt>0</asrwt>
<pdfrwt beam="1">  1        2 0.42102597E+00 0.99985328E+03</pdfrwt>
<pdfrwt beam="2">  1       -2 0.22487119E-01 0.99985328E+03</pdfrwt>
<totfact> 0.44504772E+01</totfact>
</mgrwt>
</event>
<event>
 6      1 +3.0741590e+01 1.00019400e+03 7.81860800e-03 9.30833200e-02
        4 -1    0    0  502    0 -0.0000000000e+00 +0.0000000000e+00 +3.0987089392e+02 3.0987089392e+02 0.0000000000e+00 0.0000e+00 1.0000e+00
       21 -1    0    0  501  502 +0.0000000000e+00 -0.0000000000e+00 -8.9360862108e+02 8.9360862108e+02 0.0000000000e+00 0.0000e+00 -1.0000e+00
  5000001  2    1    2    0    0 +1.5391041769e+01 +3.7877285431e+01 -5.1879129608e+02 1.1267357086e+03 9.9935848179e+02 0.0000e+00 0.0000e+00
  5000521  1    3    3    0    0 +1.2388457248e+02 -3.4929186702e+01 +2.8471289954e+02 3.1261617128e+02 1.0000000000e+01 0.0000e+00 1.0000e+00
 -5000521  1    3    3    0    0 -1.0849353071e+02 +7.2806472133e+01 -8.0350419562e+02 8.1411953727e+02 1.0000000000e+01 0.0000e+00 -1.0000e+00
        4  1    1    2  501    0 -1.5391041769e+01 -3.7877285431e+01 -6.4946431077e+01 7.6743806447e+01 0.0000000000e+00 0.0000e+00 1.0000e+00
<mgrwt>
<rscale>  1 0.10001945E+04</rscale>
<asrwt>0</asrwt>
<pdfrwt beam="1">  1       21 0.13747825E+00 0.10001945E+04</pdfrwt>
<pdfrwt beam="2">  1        4 0.47672445E-01 0.10001945E+04</pdfrwt>
<totfact> 0.58717336E+01</totfact>
</mgrwt>
</event>
<event>
 6      1 +3.0741590e+01 1.01225200e+03 7.81860800e-03 9.29520800e-02
        2 -1    0    0  502    0 +0.0000000000e+00 +0.0000000000e+00 +4.1445367378e+02 4.1445367378e+02 0.0000000000e+00 0.0000e+00 1.0000e+00
       -2 -1    0    0    0  501 -0.0000000000e+00 -0.0000000000e+00 -8.2625511346e+02 8.2625511346e+02 0.0000000000e+00 0.0000e+00 -1.0000e+00
  5000001  2    1    2    0    0 -9.2071052604e+01 +1.0458358522e+02 -2.8326400991e+02 1.0511390748e+03 1.0026166018e+03 0.0000e+00 0.0000e+00
  5000521  1    3    3    0    0 -5.2883951365e+02 -6.5117040495e+01 -2.2637823693e+02 5.7901516933e+02 1.0000000000e+01 0.0000e+00 1.0000e+00
 -5000521  1    3    3    0    0 +4.3676846105e+02 +1.6970062572e+02 -5.6885772977e+01 4.7212390545e+02 1.0000000000e+01 0.0000e+00 -1.0000e+00
       21  1    1    2  502  501 +9.2071052604e+01 -1.0458358522e+02 -1.2853742977e+02 1.8956971245e+02 0.0000000000e+00 0.0000e+00 -1.0000e+00
<mgrwt>
<rscale>  1 0.10122524E+04</rscale>
<asrwt>0</asrwt>
<pdfrwt beam="1">  1        2 0.63762104E-01 0.10122524E+04</pdfrwt>
<pdfrwt beam="2">  1       -2 0.12711617E+00 0.10122524E+04</pdfrwt>
<totfact> 0.34961458E+01</totfact>
</mgrwt>
</event>
<event>
 5      1 +3.0741590e+01 1.47659500e+03 7.81860800e-03 8.90016800e-02
       -2 -1    0    0    0  501 -0.0000000000e+00 +0.0000000000e+00 +3.2386062215e+02 3.2386062215e+02 0.0000000000e+00 0.0000e+00 -1.0000e+00
        2 -1    0    0  502    0 +0.0000000000e+00 -0.0000000000e+00 -1.8335625301e+03 1.8335625301e+03 0.0000000000e+00 0.0000e+00 1.0000e+00
  5000521  1    1    2    0    0 -5.4421362109e+02 -1.5309355780e+02 -1.3473141191e+03 1.4611507240e+03 1.0000000000e+01 0.0000e+00 1.0000e+00
 -5000521  1    1    2    0    0 +5.3221426297e+02 +1.3452396864e+02 -1.7097540700e+01 5.4930960828e+02 1.0000000000e+01 0.0000e+00 -1.0000e+00
       21  1    1    2  502  501 +1.1999358114e+01 +1.8569589156e+01 -1.4529024813e+02 1.4696281992e+02 0.0000000000e+00 0.0000e+00 -1.0000e+00
<mgrwt>
<rscale>  1 0.14765946E+04</rscale>
<asrwt>0</asrwt>
<pdfrwt beam="1">  1        2 0.28208654E+00 0.14765946E+04</pdfrwt>
<pdfrwt beam="2">  1       -2 0.49824711E-01 0.14765946E+04</pdfrwt>
<totfact> 0.30466628E+01</totfact>
</mgrwt>
</event>
<event>
 6      1 +3.0741590e+01 9.97867500e+02 7.81860800e-03 9.31088700e-02
        2 -1    0    0  502    0 +0.0000000000e+00 +0.0000000000e+00 +1.8287285001e+03 1.8287285001e+03 0.0000000000e+00 0.0000e+00 1.0000e+00
       -2 -1    0    0    0  501 -0.0000000000e+00 -0.0000000000e+00 -1.5449351575e+02 1.5449351575e+02 0.0000000000e+00 0.0000e+00 -1.0000e+00
  5000001  2    1    2    0    0 -2.8690950721e+01 +5.8481102519e+01 +1.5666171554e+03 1.8574253263e+03 9.9573908279e+02 0.0000e+00 0.0000e+00
  5000521  1    3    3    0    0 -3.6806659303e+02 +1.1960861769e+02 +1.7710680069e+02 4.2573002851e+02 1.0000000000e+01 0.0000e+00 -1.0000e+00
 -5000521  1    3    3    0    0 +3.3937564230e+02 -6.1127515176e+01 +1.3895103547e+03 1.4316952977e+03 1.0000000000e+01 0.0000e+00 1.0000e+00
       21  1    1    2  502  501 +2.8690950721e+01 -5.8481102519e+01 +1.0761782897e+02 1.2579668961e+02 0.0000000000e+00 0.0000e+00 1.0000e+00
<mgrwt>
<rscale>  1 0.99786749E+03</rscale>
<asrwt>0</asrwt>
<pdfrwt beam="1">  1        2 0.28134283E+00 0.99786749E+03</pdfrwt>
<pdfrwt beam="2">  1       -2 0.23768235E-01 0.99786749E+03</pdfrwt>
<totfact> 0.13080248E+02</totfact>
</mgrwt>
</event>
<event>
 6      1 +3.0741590e+01 1.00804700e+03 7.81860800e-03 9.29976300e-02
       -2 -1    0    0    0  501 -0.0000000000e+00 +0.0000000000e+00 +1.5210423591e+02 1.5210423591e+02 0.0000000000e+00 0.0000e+00 -1.0000e+00
        2 -1    0    0  502    0 +0.0000000000e+00 -0.0000000000e+00 -2.2586000312e+03 2.2586000312e+03 0.0000000000e+00 0.0000e+00 1.0000e+00
  5000001  2    1    2    0    0 +1.9879323336e+01 +1.1823366153e+02 -1.6068296755e+03 1.8968554397e+03 1.0008918856e+03 0.0000e+00 0.0000e+00
  5000521  1    3    3    0    0 -3.0658345411e+01 +9.2880096734e+01 -1.7447200225e+03 1.7474880839e+03 1.0000000000e+01 0.0000e+00 1.0000e+00
 -5000521  1    3    3    0    0 +5.0537668747e+01 +2.5353564798e+01 +1.3789034692e+02 1.4936735582e+02 1.0000000000e+01 0.0000e+00 -1.0000e+00
       21  1    1    2  502  501 -1.9879323336e+01 -1.1823366153e+02 -4.9966611976e+02 5.1384882743e+02 0.0000000000e+00 0.0000e+00 -1.0000e+00
<mgrwt>
<rscale>  1 0.10080471E+04</rscale>
<asrwt>0</asrwt>
<pdfrwt beam="1">  1        2 0.34747692E+00 0.10080471E+04</pdfrwt>
<pdfrwt beam="2">  1       -2 0.23400652E-01 0.10080471E+04</pdfrwt>
<totfact> 0.77782071E+01</totfact>
</mgrwt>
</event>
<event>
 6      1 +3.0741590e+01 1.05577400e+03 7.81860800e-03 9.24940300e-02
        3 -1    0    0  502    0 +0.0000000000e+00 +0.0000000000e+00 +3.1281872867e+02 3.1281872867e+02 0.0000000000e+00 0.0000e+00 -1.0000e+00
       -3 -1    0    0    0  501 -0.0000000000e+00 -0.0000000000e+00 -9.9654678620e+02 9.9654678620e+02 0.0000000000e+00 0.0000e+00 1.0000e+00
  5000001  2    1    2    0    0 +5.2848720312e+00 -2.8265477188e+01 -7.0845313482e+02 1.2714419533e+03 1.0553823617e+03 0.0000e+00 0.0000e+00
  5000521  1    3    3    0    0 -1.6654855997e+02 +4.5197718178e+02 -1.2767546922e+02 4.9842032575e+02 1.0000000000e+01 0.0000e+00 -1.0000e+00
 -5000521  1    3    3    0    0 +1.7183343200e+02 -4.8024265897e+02 -5.8077766560e+02 7.7302162758e+02 1.0000000000e+01 0.0000e+00 1.0000e+00
       21  1    1    2  502  501 -5.2848720312e+00 +2.8265477188e+01 +2.4725077286e+01 3.7923561539e+01 0.0000000000e+00 0.0000e+00 -1.0000e+00
<mgrwt>
<rscale>  1 0.10557740E+04</rscale>
<asrwt>0</asrwt>
<pdfrwt beam="1">  1        3 0.48125959E-01 0.10557740E+04</pdfrwt>
<pdfrwt beam="2">  1       -3 0.15331489E+00 0.10557740E+04</pdfrwt>
<totfact> 0.34008676E+00</totfact>
</mgrwt>
</event>
<event>
 6      1 +3.0741590e+01 1.02059200e+03 7.81860800e-03 9.28624400e-02
       -2 -1    0    0    0  501 -0.0000000000e+00 +0.0000000000e+00 +3.5537472045e+02 3.5537472045e+02 0.0000000000e+00 0.0000e+00 1.0000e+00
        2 -1    0    0  502    0 +0.0000000000e+00 -0.0000000000e+00 -8.9579282878e+02 8.9579282878e+02 0.0000000000e+00 0.0000e+00 -1.0000e+00
  5000001  2    1    2    0    0 -2.2972207200e+01 +8.3076023011e-01 -3.7988917500e+02 1.0890011196e+03 1.0203329068e+03 0.0000e+00 0.0000e+00
  5000521  1    3    3    0    0 -3.8812622286e+02 -3.4350108728e+02 -2.0370340156e+02 5.5698297787e+02 1.0000000000e+01 0.0000e+00 -1.0000e+00
 -5000521  1    3    3    0    0 +3.6515401565e+02 +3.4433184751e+02 -1.7618577344e+02 5.3201814172e+02 1.0000000000e+01 0.0000e+00 1.0000e+00
       21  1    1    2  502  501 +2.2972207200e+01 -8.3076023011e-01 -1.6052893333e+02 1.6216642964e+02 0.0000000000e+00 0.0000e+00 -1.0000e+00
<mgrwt>
<rscale>  1 0.10205918E+04</rscale>
<asrwt>0</asrwt>
<pdfrwt beam="1">  1        2 0.13781428E+00 0.10205918E+04</pdfrwt>
<pdfrwt beam="2">  1       -2 0.54673035E-01 0.10205918E+04</pdfrwt>
<totfact> 0.92589713E+01</totfact>
</mgrwt>
</event>
<event>
 6      1 +3.0741590e+01 9.98578500e+02 7.81860800e-03 9.31010500e-02
        2 -1    0    0  502    0 +0.0000000000e+00 +0.0000000000e+00 +1.3207161153e+03 1.3207161153e+03 0.0000000000e+00 0.0000e+00 -1.0000e+00
       -2 -1    0    0    0  501 -0.0000000000e+00 -0.0000000000e+00 -1.9689328857e+02 1.9689328857e+02 0.0000000000e+00 0.0000e+00 1.0000e+00
  5000001  2    1    2    0    0 -1.9747162014e+01 +6.2745850122e+00 +1.1076555802e+03 1.4913282189e+03 9.9836348654e+02 0.0000e+00 0.0000e+00
  5000521  1    3    3    0    0 -8.3970088808e+01 +4.4548012948e+02 +2.3153193092e+02 5.0912724992e+02 1.0000000000e+01 0.0000e+00 1.0000e+00
 -5000521  1    3    3    0    0 +6.4222926794e+01 -4.3920554446e+02 +8.7612364927e+02 9.8220096896e+02 1.0000000000e+01 0.0000e+00 -1.0000e+00
       21  1    1    2  502  501 +1.9747162014e+01 -6.2745850122e+00 +1.6167246550e+01 2.6281185013e+01 0.0000000000e+00 0.0000e+00 1.0000e+00
<mgrwt>
<rscale>  1 0.99857848E+03</rscale>
<asrwt>0</asrwt>
<pdfrwt beam="1">  1        2 0.20318709E+00 0.99857848E+03</pdfrwt>
<pdfrwt beam="2">  1       -2 0.30291276E-01 0.99857848E+03</pdfrwt>
<totfact> 0.16147496E+02</totfact>
</mgrwt>
</event>
<event>
 6      1 +3.0741590e+01 1.02866600e+03 7.81860800e-03 9.27765100e-02
        1 -1    0    0  502    0 -0.0000000000e+00 +0.0000000000e+00 +7.2831155209e+02 7.2831155209e+02 0.0000000000e+00 0.0000e+00 -1.0000e+00
       21 -1    0    0  501  502 +0.0000000000e+00 -0.0000000000e+00 -7.5913505936e+02 7.5913505936e+02 0.0000000000e+00 0.0000e+00 1.0000e+00
  5000001  2    1    2    0    0 -2.1273008325e+02 +3.4808546889e+01 +3.1860677274e+02 1.0768771973e+03 1.0058272710e+03 0.0000e+00 0.0000e+00
  5000521  1    3    3    0    0 +1.8590835278e+02 -3.4657991399e+02 -7.3148926518e+01 4.0016286417e+02 1.0000000000e+01 0.0000e+00 1.0000e+00
 -5000521  1    3    3    0    0 -3.9863843603e+02 +3.8138846088e+02 +3.9175569925e+02 6.7671433313e+02 1.0000000000e+01 0.0000e+00 -1.0000e+00
        1  1    1    2  501    0 +2.1273008325e+02 -3.4808546889e+01 -3.4943028000e+02 4.1056941415e+02 0.0000000000e+00 0.0000e+00 -1.0000e+00
<mgrwt>
<rscale>  1 0.10286662E+04</rscale>
<asrwt>0</asrwt>
<pdfrwt beam="1">  1       21 0.11679001E+00 0.10286662E+04</pdfrwt>
<pdfrwt beam="2">  1        1 0.11204793E+00 0.10286662E+04</pdfrwt>
<totfact> 0.12980054E+02</totfact>
</mgrwt>
</event>
<event>
 6      1 +3.0741590e+01 1.04128400e+03 7.81860800e-03 9.26438900e-02
       -4 -1    0    0    0  501 -0.0000000000e+00 +0.0000000000e+00 +2.7463383063e+02 2.7463383063e+02 0.0000000000e+00 0.0000e+00 1.0000e+00
       21 -1    0    0  501  502 +0.0000000000e+00 -0.0000000000e+00 -2.0767151450e+03 2.0767151450e+03 0.0000000000e+00 0.0000e+00 1.0000e+00
  5000001  2    1    2    0    0 +1.1306258505e+02 +9.0526151912e+01 -7.3518135535e+02 1.2746625520e+03 1.0311618999e+03 0.0000e+00 0.0000e+00
  5000521  1    3    3    0    0 +1.5224301277e+02 +3.9936140758e+02 +4.9552148162e+01 4.3037528297e+02 1.0000000000e+01 0.0000e+00 1.0000e+00
 -5000521  1    3    3    0    0 -3.9180427725e+01 -3.0883525567e+02 -7.8473350351e+02 8.4428726900e+02 1.0000000000e+01 0.0000e+00 -1.0000e+00
       -4  1    1    2    0  502 -1.1306258505e+02 -9.0526151912e+01 -1.0668999590e+03 1.0766864236e+03 0.0000000000e+00 0.0000e+00 1.0000e+00
<mgrwt>
<rscale>  1 0.10412843E+04</rscale>
<asrwt>0</asrwt>
<pdfrwt beam="1">  1       21 0.31949464E+00 0.10412843E+04</pdfrwt>
<pdfrwt beam="2">  1       -4 0.42251359E-01 0.10412843E+04</pdfrwt>
<totfact> 0.43361253E+00</totfact>
</mgrwt>
</event>
<event>
 6      1 +3.0741590e+01 9.95659500e+02 7.81860800e-03 9.31331800e-02
        2 -1    0    0  502    0 +0.0000000000e+00 +0.0000000000e+00 +3.0527052816e+03 3.0527052816e+03 0.0000000000e+00 0.0000e+00 -1.0000e+00
       -2 -1    0    0    0  501 -0.0000000000e+00 -0.0000000000e+00 -8.8566320959e+01 8.8566320959e+01 0.0000000000e+00 0.0000e+00 1.0000e+00
  5000001  2    1    2    0    0 -4.3696063334e+01 -2.6454690341e+00 +2.8576228952e+03 3.0261107731e+03 9.9469666488e+02 0.0000e+00 0.0000e+00
  5000521  1    3    3    0    0 +3.8648103500e+02 -3.1941878155e+01 +5.1848698624e+02 6.4754662295e+02 1.0000000000e+01 0.0000e+00 1.0000e+00
 -5000521  1    3    3    0    0 -4.3017709834e+02 +2.9296409121e+01 +2.3391359090e+03 2.3785641501e+03 1.0000000000e+01 0.0000e+00 -1.0000e+00
       21  1    1    2  502  501 +4.3696063334e+01 +2.6454690341e+00 +1.0651606544e+02 1.1516082951e+02 0.0000000000e+00 0.0000e+00 -1.0000e+00
<mgrwt>
<rscale>  1 0.99565948E+03</rscale>
<asrwt>0</asrwt>
<pdfrwt beam="1">  1        2 0.46964689E+00 0.99565948E+03</pdfrwt>
<pdfrwt beam="2">  1       -2 0.13625590E-01 0.99565948E+03</pdfrwt>
<totfact> 0.68213460E+01</totfact>
</mgrwt>
</event>
<event>
 6      1 +3.0741590e+01 1.01458200e+03 7.81860800e-03 9.29269400e-02
       -1 -1    0    0    0  501 -0.0000000000e+00 +0.0000000000e+00 +1.0107956212e+03 1.0107956212e+03 0.0000000000e+00 0.0000e+00 1.0000e+00
        1 -1    0    0  502    0 +0.0000000000e+00 -0.0000000000e+00 -8.0993771226e+02 8.0993771226e+02 0.0000000000e+00 0.0000e+00 -1.0000e+00
  5000001  2    1    2    0    0 -2.7316809948e+01 +3.7146839539e+01 -4.9113567504e+02 1.1272052403e+03 1.0135340678e+03 0.0000e+00 0.0000e+00
  5000521  1    3    3    0    0 -2.8639913385e+02 +3.2961501449e+02 -5.8031175926e+02 7.2631416040e+02 1.0000000000e+01 0.0000e+00 -1.0000e+00
 -5000521  1    3    3    0    0 +2.5908232390e+02 -2.9246817496e+02 +8.9176084229e+01 4.0089107987e+02 1.0000000000e+01 0.0000e+00 1.0000e+00
       21  1    1    2  502  501 +2.7316809948e+01 -3.7146839539e+01 +6.9199358393e+02 6.9352809315e+02 0.0000000000e+00 0.0000e+00 1.0000e+00
<mgrwt>
<rscale>  1 0.10145824E+04</rscale>
<asrwt>0</asrwt>
<pdfrwt beam="1">  1        1 0.12460580E+00 0.10145824E+04</pdfrwt>
<pdfrwt beam="2">  1       -1 0.15550702E+00 0.10145824E+04</pdfrwt>
<totfact> 0.68608602E+00</totfact>
</mgrwt>
</event>
<event>
 6      1 +3.0741590e+01 1.01577900e+03 7.81860800e-03 9.29140600e-02
       -1 -1    0    0    0  501 -0.0000000000e+00 +0.0000000000e+00 +1.7223514508e+02 1.7223514508e+02 0.0000000000e+00 0.0000e+00 -1.0000e+00
        1 -1    0    0  502    0 +0.0000000000e+00 -0.0000000000e+00 -2.1057325163e+03 2.1057325163e+03 0.0000000000e+00 0.0000e+00 1.0000e+00
  5000001  2    1    2    0    0 -2.2113500995e+00 +1.1658927671e+02 -1.9034817750e+03 2.1575563433e+03 1.0090632077e+03 0.0000e+00 0.0000e+00
  5000521  1    3    3    0    0 +3.7113441425e+02 -2.7867725058e+02 -1.0103684040e+03 1.1119110015e+03 1.0000000000e+01 0.0000e+00 -1.0000e+00
 -5000521  1    3    3    0    0 -3.7334576435e+02 +3.9526652730e+02 -8.9311337100e+02 1.0456453418e+03 1.0000000000e+01 0.0000e+00 1.0000e+00
       21  1    1    2  502  501 +2.2113500995e+00 -1.1658927671e+02 -3.0015596248e+01 1.2041131812e+02 0.0000000000e+00 0.0000e+00 -1.0000e+00
<mgrwt>
<rscale>  1 0.10157788E+04</rscale>
<asrwt>0</asrwt>
<pdfrwt beam="1">  1        1 0.32395884E+00 0.10157788E+04</pdfrwt>
<pdfrwt beam="2">  1       -1 0.26497716E-01 0.10157788E+04</pdfrwt>
<totfact> 0.32262455E+01</totfact>
</mgrwt>
</event>
<event>
 6      1 +3.0741590e+01 1.00157200e+03 7.81860800e-03 9.30682300e-02
       -5 -1    0    0    0  501 -0.0000000000e+00 +0.0000000000e+00 +2.1637029298e+03 2.1637029298e+03 0.0000000000e+00 0.0000e+00 -1.0000e+00
        5 -1    0    0  502    0 +0.0000000000e+00 -0.0000000000e+00 -3.4354873213e+02 3.4354873213e+02 0.0000000000e+00 0.0000e+00 1.0000e+00
  5000001  2    1    2    0    0 -3.8278293484e+01 +2.3053415990e+01 +3.8752861041e+02 1.0739293810e+03 1.0005744369e+03 0.0000e+00 0.0000e+00
  5000521  1    3    3    0    0 +2.7771263530e+02 +1.4514351852e+02 +5.9784980733e+02 6.7506691587e+02 1.0000000000e+01 0.0000e+00 -1.0000e+00
 -5000521  1    3    3    0    0 -3.1599092879e+02 -1.2209010253e+02 -2.1032119692e+02 3.9886246513e+02 1.0000000000e+01 0.0000e+00 1.0000e+00
       21  1    1    2  502  501 +3.8278293484e+01 -2.3053415990e+01 +1.4326255873e+03 1.4333222809e+03 0.0000000000e+00 0.0000e+00 -1.0000e+00
<mgrwt>
<rscale>  1 0.10015717E+04</rscale>
<asrwt>0</asrwt>
<pdfrwt beam="1">  1        5 0.52853652E-01 0.10015717E+04</pdfrwt>
<pdfrwt beam="2">  1       -5 0.33287737E+00 0.10015717E+04</pdfrwt>
<totfact> 0.45068616E-02</totfact>
</mgrwt>
</event>
<event>
 6      1 +3.0741590e+01 1.01709800e+03 7.81860800e-03 9.28998800e-02
       -1 -1    0    0    0  501 -0.0000000000e+00 +0.0000000000e+00 +7.1435318838e+02 7.1435318838e+02 0.0000000000e+00 0.0000e+00 1.0000e+00
        1 -1    0    0  502    0 +0.0000000000e+00 -0.0000000000e+00 -4.7788061992e+02 4.7788061992e+02 0.0000000000e+00 0.0000e+00 -1.0000e+00
  5000001  2    1    2    0    0 -5.8645873099e+01 +4.5462894984e+01 +3.3323325517e+02 1.0702959399e+03 1.0143878861e+03 0.0000e+00 0.0000e+00
  5000521  1    3    3    0    0 +3.6475803735e+02 +1.3698290375e+02 +4.7495865016e+02 6.1440903403e+02 1.0000000000e+01 0.0000e+00 1.0000e+00
 -5000521  1    3    3    0    0 -4.2340391045e+02 -9.1520008766e+01 -1.4172539499e+02 4.5588690590e+02 1.0000000000e+01 0.0000e+00 -1.0000e+00
       21  1    1    2  502  501 +5.8645873099e+01 -4.5462894984e+01 -9.6760686708e+01 1.2193786838e+02 0.0000000000e+00 0.0000e+00 -1.0000e+00
<mgrwt>
<rscale>  1 0.10170983E+04</rscale>
<asrwt>0</asrwt>
<pdfrwt beam="1">  1        1 0.73520095E-01 0.10170983E+04</pdfrwt>
<pdfrwt beam="2">  1       -1 0.10990049E+00 0.10170983E+04</pdfrwt>
<totfact> 0.36142425E+01</totfact>
</mgrwt>
</event>
<event>
 6      1 +3.0741590e+01 1.00230900e+03 7.81860800e-03 9.30601600e-02
        1 -1    0    0  502    0 +0.0000000000e+00 +0.0000000000e+00 +1.0581142441e+03 1.0581142441e+03 0.0000000000e+00 0.0000e+00 1.0000e+00
       -1 -1    0    0    0  501 -0.0000000000e+00 -0.0000000000e+00 -2.5345110870e+02 2.5345110870e+02 0.0000000000e+00 0.0000e+00 -1.0000e+00
  5000001  2    1    2    0    0 -2.3802482848e+01 +6.5665110131e+00 +8.0693943755e+02 1.2867690061e+03 1.0020047615e+03 0.0000e+00 0.0000e+00
  5000521  1    3    3    0    0 -1.8025720861e+02 -6.3881218751e+01 +1.0058329066e+03 1.0239010243e+03 1.0000000000e+01 0.0000e+00 1.0000e+00
 -5000521  1    3    3    0    0 +1.5645472576e+02 +7.0447729764e+01 -1.9889346910e+02 2.6286798187e+02 1.0000000000e+01 0.0000e+00 -1.0000e+00
       21  1    1    2  502  501 +2.3802482848e+01 -6.5665110131e+00 -2.2763021559e+00 2.4796346669e+01 0.0000000000e+00 0.0000e+00 -1.0000e+00
<mgrwt>
<rscale>  1 0.10023089E+04</rscale>
<asrwt>0</asrwt>
<pdfrwt beam="1">  1        1 0.16278680E+00 0.10023089E+04</pdfrwt>
<pdfrwt beam="2">  1       -1 0.38992479E-01 0.10023089E+04</pdfrwt>
<totfact> 0.87211147E+01</totfact>
</mgrwt>
</event>
<event>
 6      1 +3.0741590e+01 1.00433200e+03 7.81860800e-03 9.30380600e-02
       -2 -1    0    0    0  501 -0.0000000000e+00 +0.0000000000e+00 +4.0002657291e+02 4.0002657291e+02 0.0000000000e+00 0.0000e+00 1.0000e+00
        2 -1    0    0  502    0 +0.0000000000e+00 -0.0000000000e+00 -7.8975032290e+02 7.8975032290e+02 0.0000000000e+00 0.0000e+00 -1.0000e+00
  5000001  2    1    2    0    0 -4.4098509573e+01 +8.7265094072e+00 -4.6133855187e+02 1.1052221185e+03 1.0033253915e+03 0.0000e+00 0.0000e+00
  5000521  1    3    3    0    0 -1.3135058194e+02 +1.7542832441e+02 +2.7120924511e+02 3.4883022663e+02 1.0000000000e+01 0.0000e+00 1.0000e+00
 -5000521  1    3    3    0    0 +8.7252072368e+01 -1.6670181500e+02 -7.3254779698e+02 7.5639189189e+02 1.0000000000e+01 0.0000e+00 -1.0000e+00
       21  1    1    2  502  501 +4.4098509573e+01 -8.7265094072e+00 +7.1614801885e+01 8.4554777287e+01 0.0000000000e+00 0.0000e+00 -1.0000e+00
<mgrwt>
<rscale>  1 0.10043320E+04</rscale>
<asrwt>0</asrwt>
<pdfrwt beam="1">  1        2 0.12150005E+00 0.10043320E+04</pdfrwt>
<pdfrwt beam="2">  1       -2 0.61542550E-01 0.10043320E+04</pdfrwt>
<totfact> 0.85788341E+01</totfact>
</mgrwt>
</event>
<event>
 6      1 +3.0741590e+01 1.08428500e+03 7.81860800e-03 9.22064600e-02
       -2 -1    0    0    0  501 -0.0000000000e+00 +0.0000000000e+00 +1.2595190704e+02 1.2595190704e+02 0.0000000000e+00 0.0000e+00 1.0000e+00
        2 -1    0    0  502    0 +0.0000000000e+00 -0.0000000000e+00 -2.8155705192e+03 2.8155705192e+03 0.0000000000e+00 0.0000e+00 -1.0000e+00
  5000001  2    1    2    0    0 -2.1010666064e+01 +3.0125542970e+01 -2.2217553021e+03 2.4722196739e+03 1.0836625385e+03 0.0000e+00 0.0000e+00
  5000521  1    3    3    0    0 +1.3395939404e+02 +5.3041626177e+02 -1.3273374963e+03 1.4356919444e+03 1.0000000000e+01 0.0000e+00 -1.0000e+00
 -5000521  1    3    3    0    0 -1.5497006011e+02 -5.0029071880e+02 -8.9441780582e+02 1.0365277296e+03 1.0000000000e+01 0.0000e+00 1.0000e+00
       21  1    1    2  502  501 +2.1010666064e+01 -3.0125542970e+01 -4.6786330999e+02 4.6930275224e+02 0.0000000000e+00 0.0000e+00 -1.0000e+00
<mgrwt>
<rscale>  1 0.10842848E+04</rscale>
<asrwt>0</asrwt>
<pdfrwt beam="1">  1        2 0.43316467E+00 0.10842848E+04</pdfrwt>
<pdfrwt beam="2">  1       -2 0.19377218E-01 0.10842848E+04</pdfrwt>
<totfact> 0.51552840E+01</totfact>
</mgrwt>
</event>
<event>
 6      1 +3.0741590e+01 1.05844600e+03 7.81860800e-03 9.24666700e-02
       -1 -1    0    0    0  501 -0.0000000000e+00 +0.0000000000e+00 +1.3875222413e+03 1.3875222413e+03 0.0000000000e+00 0.0000e+00 1.0000e+00
        1 -1    0    0  502    0 +0.0000000000e+00 -0.0000000000e+00 -7.3781293048e+02 7.3781293048e+02 0.0000000000e+00 0.0000e+00 -1.0000e+00
  5000001  2    1    2    0    0 +7.3779374787e+01 -1.2293507531e+01 +1.1826761960e+03 1.5871454030e+03 1.0557997061e+03 0.0000e+00 0.0000e+00
  5000521  1    3    3    0    0 -2.7335577975e+02 -4.3223508838e+02 +5.2404826938e+02 7.3230945821e+02 1.0000000000e+01 0.0000e+00 1.0000e+00
 -5000521  1    3    3    0    0 +3.4713515454e+02 +4.1994158084e+02 +6.5862792661e+02 8.5483594482e+02 1.0000000000e+01 0.0000e+00 -1.0000e+00
       21  1    1    2  502  501 -7.3779374787e+01 +1.2293507531e+01 -5.3296688518e+02 5.3818976873e+02 0.0000000000e+00 0.0000e+00 -1.0000e+00
<mgrwt>
<rscale>  1 0.10584458E+04</rscale>
<asrwt>0</asrwt>
<pdfrwt beam="1">  1        1 0.11350968E+00 0.10584458E+04</pdfrwt>
<pdfrwt beam="2">  1       -1 0.21346496E+00 0.10584458E+04</pdfrwt>
<totfact> 0.30542780E+00</totfact>
</mgrwt>
</event>
<event>
 6      1 +3.0741590e+01 9.85082200e+02 7.81860800e-03 9.32505900e-02
       -1 -1    0    0    0  501 -0.0000000000e+00 +0.0000000000e+00 +3.5332706103e+02 3.5332706103e+02 0.0000000000e+00 0.0000e+00 -1.0000e+00
        1 -1    0    0  502    0 +0.0000000000e+00 -0.0000000000e+00 -7.9280163719e+02 7.9280163719e+02 0.0000000000e+00 0.0000e+00 1.0000e+00
  5000001  2    1    2    0    0 +6.1999468305e+00 +2.4187079769e+01 -3.3773542709e+02 1.0413703638e+03 9.8476573956e+02 0.0000e+00 0.0000e+00
  5000521  1    3    3    0    0 -4.8213167983e+02 -2.9109213402e+01 -9.1169090212e+01 4.9164022009e+02 1.0000000000e+01 0.0000e+00 -1.0000e+00
 -5000521  1    3    3    0    0 +4.8833162666e+02 +5.3296293171e+01 -2.4656633688e+02 5.4973014375e+02 1.0000000000e+01 0.0000e+00 1.0000e+00
       21  1    1    2  502  501 -6.1999468305e+00 -2.4187079769e+01 -1.0173914907e+02 1.0475833438e+02 0.0000000000e+00 0.0000e+00 1.0000e+00
<mgrwt>
<rscale>  1 0.98508224E+03</rscale>
<asrwt>0</asrwt>
<pdfrwt beam="1">  1        1 0.12196948E+00 0.98508224E+03</pdfrwt>
<pdfrwt beam="2">  1       -1 0.54358010E-01 0.98508224E+03</pdfrwt>
<totfact> 0.76935256E+01</totfact>
</mgrwt>
</event>
<event>
 6      1 +3.0741590e+01 1.00920800e+03 7.81860800e-03 9.29850300e-02
       -1 -1    0    0    0  501 -0.0000000000e+00 +0.0000000000e+00 +1.4882436590e+03 1.4882436590e+03 0.0000000000e+00 0.0000e+00 1.0000e+00
        1 -1    0    0  502    0 +0.0000000000e+00 -0.0000000000e+00 -2.0634876422e+02 2.0634876422e+02 0.0000000000e+00 0.0000e+00 -1.0000e+00
  5000001  2    1    2    0    0 +3.6187527408e+01 +9.0164971180e+01 +1.1960948686e+03 1.5649741234e+03 1.0045206882e+03 0.0000e+00 0.0000e+00
  5000521  1    3    3    0    0 +4.8900128258e+02 +9.5958047864e+00 +3.4868324237e+02 6.0074481882e+02 1.0000000000e+01 0.0000e+00 -1.0000e+00
 -5000521  1    3    3    0    0 -4.5281375517e+02 +8.0569166394e+01 +8.4741162627e+02 9.6422930456e+02 1.0000000000e+01 0.0000e+00 1.0000e+00
       21  1    1    2  502  501 -3.6187527408e+01 -9.0164971180e+01 +8.5800026161e+01 1.2961829985e+02 0.0000000000e+00 0.0000e+00 -1.0000e+00
<mgrwt>
<rscale>  1 0.10092081E+04</rscale>
<asrwt>0</asrwt>
<pdfrwt beam="1">  1        1 0.31745965E-01 0.10092081E+04</pdfrwt>
<pdfrwt beam="2">  1       -1 0.22896056E+00 0.10092081E+04</pdfrwt>
<totfact> 0.13777382E+01</totfact>
</mgrwt>
</event>
<event>
 6      1 +3.0741590e+01 1.00940100e+03 7.81860800e-03 9.29829300e-02
        2 -1    0    0  502    0 +0.0000000000e+00 +0.0000000000e+00 +1.1302466731e+03 1.1302466731e+03 0.0000000000e+00 0.0000e+00 -1.0000e+00
       -2 -1    0    0    0  501 -0.0000000000e+00 -0.0000000000e+00 -3.8436818358e+02 3.8436818358e+02 0.0000000000e+00 0.0000e+00 1.0000e+00
  5000001  2    1    2    0    0 -9.2242223894e+01 -3.6077452802e+01 +8.8595468211e+02 1.3430585971e+03 1.0045299826e+03 0.0000e+00 0.0000e+00
  5000521  1    3    3    0    0 +3.8400693920e+02 +2.4017996779e+02 +4.7126958248e+02 6.5371459036e+02 1.0000000000e+01 0.0000e+00 1.0000e+00
 -5000521  1    3    3    0    0 -4.7624916309e+02 -2.7625742059e+02 +4.1468509963e+02 6.8934400675e+02 1.0000000000e+01 0.0000e+00 -1.0000e+00
       21  1    1    2  502  501 +9.2242223894e+01 +3.6077452802e+01 -1.4007619259e+02 1.7155625958e+02 0.0000000000e+00 0.0000e+00 1.0000e+00
<mgrwt>
<rscale>  1 0.10094012E+04</rscale>
<asrwt>0</asrwt>
<pdfrwt beam="1">  1        2 0.17388410E+00 0.10094012E+04</pdfrwt>
<pdfrwt beam="2">  1       -2 0.59133567E-01 0.10094012E+04</pdfrwt>
<totfact> 0.55556956E+01</totfact>
</mgrwt>
</event>
<event>
 6      1 +3.0741590e+01 1.00041800e+03 7.81860800e-03 9.30808600e-02
       -1 -1    0    0    0  501 -0.0000000000e+00 +0.0000000000e+00 +1.3535702138e+03 1.3535702138e+03 0.0000000000e+00 0.0000e+00 1.0000e+00
        1 -1    0    0  502    0 +0.0000000000e+00 -0.0000000000e+00 -2.0222914426e+02 2.0222914426e+02 0.0000000000e+00 0.0000e+00 -1.0000e+00
  5000001  2    1    2    0    0 +4.0744811025e+01 -2.0447135448e+01 +1.1093647137e+03 1.4938296927e+03 9.9937923622e+02 0.0000e+00 0.0000e+00
  5000521  1    3    3    0    0 +1.9467888455e+02 +6.6823453238e+01 +1.2504382510e+03 1.2673046443e+03 1.0000000000e+01 0.0000e+00 1.0000e+00
 -5000521  1    3    3    0    0 -1.5393407352e+02 -8.7270588686e+01 -1.4107353725e+02 2.2652504840e+02 1.0000000000e+01 0.0000e+00 -1.0000e+00
       21  1    1    2  502  501 -4.0744811025e+01 +2.0447135448e+01 +4.1976355801e+01 6.1969665320e+01 0.0000000000e+00 0.0000e+00 1.0000e+00
<mgrwt>
<rscale>  1 0.10004185E+04</rscale>
<asrwt>0</asrwt>
<pdfrwt beam="1">  1        1 0.31112177E-01 0.10004185E+04</pdfrwt>
<pdfrwt beam="2">  1       -1 0.20824157E+00 0.10004185E+04</pdfrwt>
<totfact> 0.19474911E+01</totfact>
</mgrwt>
</event>
<event>
 6      1 +3.0741590e+01 1.02035700e+03 7.81860800e-03 9.28649500e-02
       -2 -1    0    0    0  501 -0.0000000000e+00 +0.0000000000e+00 +2.8315364417e+02 2.8315364417e+02 0.0000000000e+00 0.0000e+00 1.0000e+00
        2 -1    0    0  502    0 +0.0000000000e+00 -0.0000000000e+00 -1.3628667981e+03 1.3628667981e+03 0.0000000000e+00 0.0000e+00 -1.0000e+00
  5000001  2    1    2    0    0 +1.6076047594e+01 +2.1149098513e+02 -9.6723120910e+02 1.4059390727e+03 9.9806892956e+02 0.0000e+00 0.0000e+00
  5000521  1    3    3    0    0 +2.2466151175e+02 +2.2165445609e+01 -1.0792278588e+03 1.1026317940e+03 1.0000000000e+01 0.0000e+00 -1.0000e+00
 -5000521  1    3    3    0    0 -2.0858546416e+02 +1.8932553952e+02 +1.1199664972e+02 3.0330727871e+02 1.0000000000e+01 0.0000e+00 1.0000e+00
       21  1    1    2  502  501 -1.6076047594e+01 -2.1149098513e+02 -1.1248194480e+02 2.4008136955e+02 0.0000000000e+00 0.0000e+00 1.0000e+00
<mgrwt>
<rscale>  1 0.10203570E+04</rscale>
<asrwt>0</asrwt>
<pdfrwt beam="1">  1        2 0.20967181E+00 0.10203570E+04</pdfrwt>
<pdfrwt beam="2">  1       -2 0.43562099E-01 0.10203570E+04</pdfrwt>
<totfact> 0.75711185E+01</totfact>
</mgrwt>
</event>
<event>
 6      1 +3.0741590e+01 9.99563600e+02 7.81860800e-03 9.30902400e-02
        1 -1    0    0  502    0 +0.0000000000e+00 +0.0000000000e+00 +3.9046023635e+03 3.9046023635e+03 0.0000000000e+00 0.0000e+00 1.0000e+00
       -1 -1    0    0    0  501 -0.0000000000e+00 -0.0000000000e+00 -7.0660957575e+01 7.0660957575e+01 0.0000000000e+00 0.0000e+00 -1.0000e+00
  5000001  2    1    2    0    0 -1.2924638389e+01 +2.0074731584e+01 +3.4852204145e+03 3.6257259540e+03 9.9927839700e+02 0.0000e+00 0.0000e+00
  5000521  1    3    3    0    0 -3.8124549687e+02 -1.0520299956e+02 +6.2871068341e+02 7.4282765392e+02 1.0000000000e+01 0.0000e+00 -1.0000e+00
 -5000521  1    3    3    0    0 +3.6832085849e+02 +1.2527773115e+02 +2.8565097311e+03 2.8828983001e+03 1.0000000000e+01 0.0000e+00 1.0000e+00
       21  1    1    2  502  501 +1.2924638389e+01 -2.0074731584e+01 +3.4872099138e+02 3.4953736704e+02 0.0000000000e+00 0.0000e+00 -1.0000e+00
<mgrwt>
<rscale>  1 0.99956358E+03</rscale>
<asrwt>0</asrwt>
<pdfrwt beam="1">  1        1 0.60070789E+00 0.99956358E+03</pdfrwt>
<pdfrwt beam="2">  1       -1 0.10870920E-01 0.99956358E+03</pdfrwt>
<totfact> 0.67430748E+00</totfact>
</mgrwt>
</event>
<event>
 6      1 +3.0741590e+01 1.01002400e+03 7.81860800e-03 9.29761900e-02
        1 -1    0    0  502    0 +0.0000000000e+00 +0.0000000000e+00 +2.5330563402e+02 2.5330563402e+02 0.0000000000e+00 0.0000e+00 1.0000e+00
       -1 -1    0    0    0  501 -0.0000000000e+00 -0.0000000000e+00 -1.4253065947e+03 1.4253065947e+03 0.0000000000e+00 0.0000e+00 -1.0000e+00
  5000001  2    1    2    0    0 -1.5053069614e+02 +5.2441665484e+01 -1.1261749824e+03 1.5127519290e+03 9.9736587508e+02 0.0000e+00 0.0000e+00
  5000521  1    3    3    0    0 -1.5259049630e+02 -1.8631974724e+02 -1.2291280901e+03 1.2525393286e+03 1.0000000000e+01 0.0000e+00 -1.0000e+00
 -5000521  1    3    3    0    0 +2.0598001609e+00 +2.3876141272e+02 +1.0295310772e+02 2.6021260033e+02 1.0000000000e+01 0.0000e+00 1.0000e+00
       21  1    1    2  502  501 +1.5053069614e+02 -5.2441665484e+01 -4.5825978273e+01 1.6586029978e+02 0.0000000000e+00 0.0000e+00 -1.0000e+00
<mgrwt>
<rscale>  1 0.10100239E+04</rscale>
<asrwt>0</asrwt>
<pdfrwt beam="1">  1        1 0.38970098E-01 0.10100239E+04</pdfrwt>
<pdfrwt beam="2">  1       -1 0.21927794E+00 0.10100239E+04</pdfrwt>
<totfact> 0.12227125E+01</totfact>
</mgrwt>
</event>
<event>
 6      1 +3.0741590e+01 1.00710900e+03 7.81860800e-03 9.30078200e-02
        2 -1    0    0  502    0 +0.0000000000e+00 +0.0000000000e+00 +1.1245617455e+03 1.1245617455e+03 0.0000000000e+00 0.0000e+00 -1.0000e+00
       -2 -1    0    0    0  501 -0.0000000000e+00 -0.0000000000e+00 -2.7172011709e+02 2.7172011709e+02 0.0000000000e+00 0.0000e+00 1.0000e+00
  5000001  2    1    2    0    0 +7.7593742301e+01 -5.9742284180e+01 +7.6470677686e+02 1.2645333088e+03 1.0023363234e+03 0.0000e+00 0.0000e+00
  5000521  1    3    3    0    0 +4.2980686476e+02 +2.0118742978e+02 +6.6135937467e+02 8.1406789972e+02 1.0000000000e+01 0.0000e+00 1.0000e+00
 -5000521  1    3    3    0    0 -3.5221312246e+02 -2.6092971396e+02 +1.0334740219e+02 4.5046540910e+02 1.0000000000e+01 0.0000e+00 -1.0000e+00
       21  1    1    2  502  501 -7.7593742301e+01 +5.9742284180e+01 +8.8134851553e+01 1.3174855377e+02 0.0000000000e+00 0.0000e+00 -1.0000e+00
<mgrwt>
<rscale>  1 0.10071088E+04</rscale>
<asrwt>0</asrwt>
<pdfrwt beam="1">  1        2 0.17300950E+00 0.10071088E+04</pdfrwt>
<pdfrwt beam="2">  1       -2 0.41803096E-01 0.10071088E+04</pdfrwt>
<totfact> 0.11376668E+02</totfact>
</mgrwt>
</event>
<event>
 6      1 +3.0741590e+01 9.95990000e+02 7.81860800e-03 9.31295400e-02
       -2 -1    0    0    0  501 -0.0000000000e+00 +0.0000000000e+00 +3.6650784533e+02 3.6650784533e+02 0.0000000000e+00 0.0000e+00 -1.0000e+00
        2 -1    0    0  502    0 +0.0000000000e+00 -0.0000000000e+00 -8.2317466985e+02 8.2317466985e+02 0.0000000000e+00 0.0000e+00 1.0000e+00
  5000001  2    1    2    0    0 +5.8023350532e+01 -5.9320190225e+01 -4.7689099459e+02 1.1042740189e+03 9.9252732657e+02 0.0000e+00 0.0000e+00
  5000521  1    3    3    0    0 +9.4977507444e+01 +1.8409838148e+02 +2.5692751656e+02 3.3018886982e+02 1.0000000000e+01 0.0000e+00 -1.0000e+00
 -5000521  1    3    3    0    0 -3.6954156913e+01 -2.4341857171e+02 -7.3381851115e+02 7.7408514911e+02 1.0000000000e+01 0.0000e+00 1.0000e+00
       21  1    1    2  502  501 -5.8023350532e+01 +5.9320190225e+01 +2.0224170071e+01 8.5408496242e+01 0.0000000000e+00 0.0000e+00 1.0000e+00
<mgrwt>
<rscale>  1 0.99599000E+03</rscale>
<asrwt>0</asrwt>
<pdfrwt beam="1">  1        2 0.12664225E+00 0.99599000E+03</pdfrwt>
<pdfrwt beam="2">  1       -2 0.56385823E-01 0.99599000E+03</pdfrwt>
<totfact> 0.97667879E+01</totfact>
</mgrwt>
</event>
<event>
 6      1 +3.0741590e+01 1.00095500e+03 7.81860800e-03 9.30749800e-02
       -2 -1    0    0    0  501 -0.0000000000e+00 +0.0000000000e+00 +1.8234479643e+02 1.8234479643e+02 0.0000000000e+00 0.0000e+00 1.0000e+00
        2 -1    0    0  502    0 +0.0000000000e+00 -0.0000000000e+00 -1.6684912268e+03 1.6684912268e+03 0.0000000000e+00 0.0000e+00 -1.0000e+00
  5000001  2    1    2    0    0 -8.8253475792e+01 -3.8998466800e+01 -1.2952730330e+03 1.6369617372e+03 9.9629410448e+02 0.0000e+00 0.0000e+00
  5000521  1    3    3    0    0 +2.6486295748e+02 +2.2283137072e+02 -9.5577226182e+01 3.5922306745e+02 1.0000000000e+01 0.0000e+00 1.0000e+00
 -5000521  1    3    3    0    0 -3.5311643328e+02 -2.6182983752e+02 -1.1996958068e+03 1.2777386697e+03 1.0000000000e+01 0.0000e+00 -1.0000e+00
       21  1    1    2  502  501 +8.8253475792e+01 +3.8998466800e+01 -1.9087339739e+02 2.1387428605e+02 0.0000000000e+00 0.0000e+00 1.0000e+00
<mgrwt>
<rscale>  1 0.10009553E+04</rscale>
<asrwt>0</asrwt>
<pdfrwt beam="1">  1        2 0.25669097E+00 0.10009553E+04</pdfrwt>
<pdfrwt beam="2">  1       -2 0.28053044E-01 0.10009553E+04</pdfrwt>
<totfact> 0.11851444E+02</totfact>
</mgrwt>
</event>
<event>
 6      1 +3.0741590e+01 1.01383400e+03 7.81860800e-03 9.29350100e-02
       21 -1    0    0  501  502 +0.0000000000e+00 +0.0000000000e+00 +1.0518957620e+03 1.0518957620e+03 0.0000000000e+00 0.0000e+00 -1.0000e+00
        1 -1    0    0  502    0 -0.0000000000e+00 -0.0000000000e+00 -4.1497527914e+02 4.1497527914e+02 0.0000000000e+00 0.0000e+00 1.0000e+00
  5000001  2    1    2    0    0 -4.8439664360e+01 +1.4049426773e+02 +2.3831930834e+02 1.0414677776e+03 1.0028828439e+03 0.0000e+00 0.0000e+00
  5000521  1    3    3    0    0 +1.8728251135e+02 +1.1581809003e+02 +5.8286589379e+02 6.2315424991e+02 1.0000000000e+01 0.0000e+00 -1.0000e+00
 -5000521  1    3    3    0    0 -2.3572217571e+02 +2.4676177700e+01 -3.4454658545e+02 4.1831352765e+02 1.0000000000e+01 0.0000e+00 1.0000e+00
        1  1    1    2  501    0 +4.8439664360e+01 -1.4049426773e+02 +3.9860117455e+02 4.2540326363e+02 0.0000000000e+00 0.0000e+00 1.0000e+00
<mgrwt>
<rscale>  1 0.10138338E+04</rscale>
<asrwt>0</asrwt>
<pdfrwt beam="1">  1       21 0.16183012E+00 0.10138338E+04</pdfrwt>
<pdfrwt beam="2">  1        1 0.63842351E-01 0.10138338E+04</pdfrwt>
<totfact> 0.11974265E+02</totfact>
</mgrwt>
</event>
<event>
 6      1 +3.0741590e+01 1.00041900e+03 7.81860800e-03 9.30808600e-02
       -2 -1    0    0    0  501 -0.0000000000e+00 +0.0000000000e+00 +2.9873584194e+02 2.9873584194e+02 0.0000000000e+00 0.0000e+00 -1.0000e+00
        2 -1    0    0  502    0 +0.0000000000e+00 -0.0000000000e+00 -9.4806161225e+02 9.4806161225e+02 0.0000000000e+00 0.0000e+00 1.0000e+00
  5000001  2    1    2    0    0 +1.3702079805e+01 +5.2308192548e+01 -6.4942551915e+02 1.1927243190e+03 9.9895640657e+02 0.0000e+00 0.0000e+00
  5000521  1    3    3    0    0 -3.4500845695e+02 +3.0221201755e+01 +1.0076628262e+02 3.6082959983e+02 1.0000000000e+01 0.0000e+00 -1.0000e+00
 -5000521  1    3    3    0    0 +3.5871053676e+02 +2.2086990793e+01 -7.5019180177e+02 8.3189471918e+02 1.0000000000e+01 0.0000e+00 1.0000e+00
       21  1    1    2  502  501 -1.3702079805e+01 -5.2308192548e+01 +9.9748837731e-02 5.4073135182e+01 0.0000000000e+00 0.0000e+00 1.0000e+00
<mgrwt>
<rscale>  1 0.10004188E+04</rscale>
<asrwt>0</asrwt>
<pdfrwt beam="1">  1        2 0.14585563E+00 0.10004188E+04</pdfrwt>
<pdfrwt beam="2">  1       -2 0.45959361E-01 0.10004188E+04</pdfrwt>
<totfact> 0.12195209E+02</totfact>
</mgrwt>
</event>
<event>
 6      1 +3.0741590e+01 1.00028900e+03 7.81860800e-03 9.30822800e-02
        4 -1    0    0  502    0 +0.0000000000e+00 +0.0000000000e+00 +2.3635299094e+02 2.3635299094e+02 0.0000000000e+00 0.0000e+00 1.0000e+00
       -4 -1    0    0    0  501 -0.0000000000e+00 -0.0000000000e+00 -1.1844399618e+03 1.1844399618e+03 0.0000000000e+00 0.0000e+00 -1.0000e+00
  5000001  2    1    2    0    0 +8.0766595357e-01 -2.1163674155e+01 -9.6781514024e+02 1.3918489707e+03 1.0000644270e+03 0.0000e+00 0.0000e+00
  5000521  1    3    3    0    0 -2.5822392432e+02 +1.9700292151e+02 -1.0000390004e+03 1.0515073697e+03 1.0000000000e+01 0.0000e+00 -1.0000e+00
 -5000521  1    3    3    0    0 +2.5903159028e+02 -2.1816659566e+02 +3.2223860177e+01 3.4034160103e+02 1.0000000000e+01 0.0000e+00 1.0000e+00
       21  1    1    2  502  501 -8.0766595357e-01 +2.1163674155e+01 +1.9728169373e+01 2.8943982014e+01 0.0000000000e+00 0.0000e+00 1.0000e+00
<mgrwt>
<rscale>  1 0.10002887E+04</rscale>
<asrwt>0</asrwt>
<pdfrwt beam="1">  1        4 0.36361998E-01 0.10002887E+04</pdfrwt>
<pdfrwt beam="2">  1       -4 0.18222153E+00 0.10002887E+04</pdfrwt>
<totfact> 0.25413397E+00</totfact>
</mgrwt>
</event>
<event>
 6      1 +3.0741590e+01 1.00630700e+03 7.81860800e-03 9.30165500e-02
        3 -1    0    0  502    0 -0.0000000000e+00 +0.0000000000e+00 +8.7673691148e+02 8.7673691148e+02 0.0000000000e+00 0.0000e+00 -1.0000e+00
       21 -1    0    0  501  502 +0.0000000000e+00 -0.0000000000e+00 -3.5005523640e+02 3.5005523640e+02 0.0000000000e+00 0.0000e+00 1.0000e+00
  5000001  2    1    2    0    0 -5.3858845851e+00 -2.2048130668e+01 +5.8515384711e+02 1.1640695625e+03 1.0060505920e+03 0.0000e+00 0.0000e+00
  5000521  1    3    3    0    0 -1.7288622272e+02 -7.6546059841e+01 -2.4824043694e+02 3.1220547692e+02 1.0000000000e+01 0.0000e+00 1.0000e+00
 -5000521  1    3    3    0    0 +1.6750033813e+02 +5.4497929173e+01 +8.3339428405e+02 8.5186408555e+02 1.0000000000e+01 0.0000e+00 -1.0000e+00
        3  1    1    2  501    0 +5.3858845851e+00 +2.2048130668e+01 -5.8472172027e+01 6.2722585409e+01 0.0000000000e+00 0.0000e+00 -1.0000e+00
<mgrwt>
<rscale>  1 0.10063066E+04</rscale>
<asrwt>0</asrwt>
<pdfrwt beam="1">  1       21 0.53854652E-01 0.10063066E+04</pdfrwt>
<pdfrwt beam="2">  1        3 0.13488260E+00 0.10063066E+04</pdfrwt>
<totfact> 0.62631431E+01</totfact>
</mgrwt>
</event>
<event>
 6      1 +3.0741590e+01 1.00071000e+03 7.81860800e-03 9.30776700e-02
       -2 -1    0    0    0  501 -0.0000000000e+00 +0.0000000000e+00 +2.6824788519e+02 2.6824788519e+02 0.0000000000e+00 0.0000e+00 -1.0000e+00
        2 -1    0    0  502    0 +0.0000000000e+00 -0.0000000000e+00 -1.2142084841e+03 1.2142084841e+03 0.0000000000e+00 0.0000e+00 1.0000e+00
  5000001  2    1    2    0    0 +1.8266652602e+01 +1.9158321450e+01 -6.6786950944e+02 1.2031082604e+03 1.0003594818e+03 0.0000e+00 0.0000e+00
  5000521  1    3    3    0    0 +1.4487248148e+02 +3.5178876351e+02 +6.7085107408e+01 3.8645023181e+02 1.0000000000e+01 0.0000e+00 -1.0000e+00
 -5000521  1    3    3    0    0 -1.2660582888e+02 -3.3263044206e+02 -7.3495461685e+02 8.1665802863e+02 1.0000000000e+01 0.0000e+00 1.0000e+00
       21  1    1    2  502  501 -1.8266652602e+01 -1.9158321450e+01 -2.7809108950e+02 2.7934810888e+02 0.0000000000e+00 0.0000e+00 -1.0000e+00
<mgrwt>
<rscale>  1 0.10007097E+04</rscale>
<asrwt>0</asrwt>
<pdfrwt beam="1">  1        2 0.18680131E+00 0.10007097E+04</pdfrwt>
<pdfrwt beam="2">  1       -2 0.41268905E-01 0.10007097E+04</pdfrwt>
<totfact> 0.10306123E+02</totfact>
</mgrwt>
</event>
<event>
 6      1 +3.0741590e+01 9.73393700e+02 7.81860800e-03 9.33821700e-02
       -2 -1    0    0    0  501 -0.0000000000e+00 +0.0000000000e+00 +7.6578825302e+01 7.6578825302e+01 0.0000000000e+00 0.0000e+00 -1.0000e+00
        2 -1    0    0  502    0 +0.0000000000e+00 -0.0000000000e+00 -3.2513807241e+03 3.2513807241e+03 0.0000000000e+00 0.0000e+00 1.0000e+00
  5000001  2    1    2    0    0 -3.8528810051e+00 -2.1134429840e+01 -3.0575148235e+03 3.2087212718e+03 9.7315661395e+02 0.0000e+00 0.0000e+00
  5000521  1    3    3    0    0 +1.1667491509e+02 -1.0464045313e+01 +2.7968454663e+01 1.2085018209e+02 1.0000000000e+01 0.0000e+00 -1.0000e+00
 -5000521  1    3    3    0    0 -1.2052779610e+02 -1.0670384527e+01 -3.0854832782e+03 3.0878710897e+03 1.0000000000e+01 0.0000e+00 1.0000e+00
       21  1    1    2  502  501 +3.8528810051e+00 +2.1134429840e+01 -1.1728707530e+02 1.1923827762e+02 0.0000000000e+00 0.0000e+00 -1.0000e+00
<mgrwt>
<rscale>  1 0.97339370E+03</rscale>
<asrwt>0</asrwt>
<pdfrwt beam="1">  1        2 0.50021246E+00 0.97339370E+03</pdfrwt>
<pdfrwt beam="2">  1       -2 0.11781357E-01 0.97339370E+03</pdfrwt>
<totfact> 0.65198309E+01</totfact>
</mgrwt>
</event>
<event>
 6      1 +3.0741590e+01 9.89862900e+02 7.81860800e-03 9.31973300e-02
        2 -1    0    0  502    0 +0.0000000000e+00 +0.0000000000e+00 +4.5905566158e+02 4.5905566158e+02 0.0000000000e+00 0.0000e+00 1.0000e+00
       -2 -1    0    0    0  501 -0.0000000000e+00 -0.0000000000e+00 -5.5934329397e+02 5.5934329397e+02 0.0000000000e+00 0.0000e+00 -1.0000e+00
  5000001  2    1    2    0    0 +9.6895944258e+00 +2.1378127304e+01 -9.5648270183e+01 9.9447331556e+02 9.8958459527e+02 0.0000e+00 0.0000e+00
  5000521  1    3    3    0    0 +1.1883230628e+02 +2.9642627814e+02 +3.4074722436e+02 4.6711703704e+02 1.0000000000e+01 0.0000e+00 1.0000e+00
 -5000521  1    3    3    0    0 -1.0914271185e+02 -2.7504815083e+02 -4.3639549455e+02 5.2735627851e+02 1.0000000000e+01 0.0000e+00 -1.0000e+00
       21  1    1    2  502  501 -9.6895944258e+00 -2.1378127304e+01 -4.6393622056e+00 2.3925639988e+01 0.0000000000e+00 0.0000e+00 -1.0000e+00
<mgrwt>
<rscale>  1 0.98986291E+03</rscale>
<asrwt>0</asrwt>
<pdfrwt beam="1">  1        2 0.70623948E-01 0.98986291E+03</pdfrwt>
<pdfrwt beam="2">  1       -2 0.86052814E-01 0.98986291E+03</pdfrwt>
<totfact> 0.79580904E+01</totfact>
</mgrwt>
</event>
<event>
 6      1 +3.0741590e+01 9.96710700e+02 7.81860800e-03 9.31216000e-02
       -2 -1    0    0    0  501 -0.0000000000e+00 +0.0000000000e+00 +1.4173050623e+02 1.4173050623e+02 0.0000000000e+00 0.0000e+00 -1.0000e+00
        2 -1    0    0  502    0 +0.0000000000e+00 -0.0000000000e+00 -1.8796992741e+03 1.8796992741e+03 0.0000000000e+00 0.0000e+00 1.0000e+00
  5000001  2    1    2    0    0 +9.9858983392e+00 -1.9830304146e+01 -1.7322052532e+03 1.9984912270e+03 9.9646333903e+02 0.0000e+00 0.0000e+00
  5000521  1    3    3    0    0 +2.9382698796e+02 +2.2563114296e+02 -1.5256702108e+03 1.5700360836e+03 1.0000000000e+01 0.0000e+00 1.0000e+00
 -5000521  1    3    3    0    0 -2.8384108963e+02 -2.4546144710e+02 -2.0653504233e+02 4.2845514338e+02 1.0000000000e+01 0.0000e+00 -1.0000e+00
       21  1    1    2  502  501 -9.9858983392e+00 +1.9830304146e+01 -5.7635146903e+00 2.2938553349e+01 0.0000000000e+00 0.0000e+00 1.0000e+00
<mgrwt>
<rscale>  1 0.99671066E+03</rscale>
<asrwt>0</asrwt>
<pdfrwt beam="1">  1        2 0.28918449E+00 0.99671066E+03</pdfrwt>
<pdfrwt beam="2">  1       -2 0.21804695E-01 0.99671066E+03</pdfrwt>
<totfact> 0.14308996E+02</totfact>
</mgrwt>
</event>
<event>
 6      1 +3.0741590e+01 9.99852700e+02 7.81860800e-03 9.30870600e-02
        2 -1    0    0  502    0 +0.0000000000e+00 +0.0000000000e+00 +2.1948377773e+02 2.1948377773e+02 0.0000000000e+00 0.0000e+00 1.0000e+00
       -2 -1    0    0    0  501 -0.0000000000e+00 -0.0000000000e+00 -1.4897845916e+03 1.4897845916e+03 0.0000000000e+00 0.0000e+00 -1.0000e+00
  5000001  2    1    2    0    0 +6.9409061659e+01 +3.1612176519e+01 -9.4716389227e+02 1.3772526805e+03 9.9693959671e+02 0.0000e+00 0.0000e+00
  5000521  1    3    3    0    0 +5.0178985478e+01 -3.9112911077e+02 -8.5847606109e+02 9.4476508156e+02 1.0000000000e+01 0.0000e+00 -1.0000e+00
 -5000521  1    3    3    0    0 +1.9230076181e+01 +4.2274128728e+02 -8.8687831176e+01 4.3248759890e+02 1.0000000000e+01 0.0000e+00 1.0000e+00
       21  1    1    2  502  501 -6.9409061659e+01 -3.1612176519e+01 -3.2313692159e+02 3.3201568884e+02 0.0000000000e+00 0.0000e+00 -1.0000e+00
<mgrwt>
<rscale>  1 0.99985274E+03</rscale>
<asrwt>0</asrwt>
<pdfrwt beam="1">  1        2 0.33766735E-01 0.99985274E+03</pdfrwt>
<pdfrwt beam="2">  1       -2 0.22919763E+00 0.99985274E+03</pdfrwt>
<totfact> 0.13491306E+01</totfact>
</mgrwt>
</event>
<event>
 6      1 +3.0741590e+01 1.01918000e+03 7.81860800e-03 9.28775500e-02
       -3 -1    0    0    0  501 -0.0000000000e+00 +0.0000000000e+00 +1.0349030884e+03 1.0349030884e+03 0.0000000000e+00 0.0000e+00 -1.0000e+00
        3 -1    0    0  502    0 +0.0000000000e+00 -0.0000000000e+00 -4.1386636346e+02 4.1386636346e+02 0.0000000000e+00 0.0000e+00 1.0000e+00
  5000001  2    1    2    0    0 +2.1426834860e+02 -1.4734591487e+02 +3.6155713430e+02 1.0814121302e+03 9.8544755827e+02 0.0000e+00 0.0000e+00
  5000521  1    3    3    0    0 +1.4982596528e+01 +4.1213411550e+02 +2.3257766649e+02 4.7357299153e+02 1.0000000000e+01 0.0000e+00 -1.0000e+00
 -5000521  1    3    3    0    0 +1.9928575207e+02 -5.5948003037e+02 +1.2897946781e+02 6.0783913865e+02 1.0000000000e+01 0.0000e+00 1.0000e+00
       21  1    1    2  502  501 -2.1426834860e+02 +1.4734591487e+02 +2.5947959068e+02 3.6735732172e+02 0.0000000000e+00 0.0000e+00 -1.0000e+00
<mgrwt>
<rscale>  1 0.10191804E+04</rscale>
<asrwt>0</asrwt>
<pdfrwt beam="1">  1        3 0.63671748E-01 0.10191804E+04</pdfrwt>
<pdfrwt beam="2">  1       -3 0.15921586E+00 0.10191804E+04</pdfrwt>
<totfact> 0.17073998E+00</totfact>
</mgrwt>
</event>
<event>
 6      1 +3.0741590e+01 1.01088700e+03 7.81860800e-03 9.29668400e-02
        1 -1    0    0  502    0 +0.0000000000e+00 +0.0000000000e+00 +1.8134557180e+03 1.8134557180e+03 0.0000000000e+00 0.0000e+00 -1.0000e+00
       -1 -1    0    0    0  501 -0.0000000000e+00 -0.0000000000e+00 -1.8765856636e+02 1.8765856636e+02 0.0000000000e+00 0.0000e+00 1.0000e+00
  5000001  2    1    2    0    0 -9.8371446753e+01 -1.1881771883e+02 +1.4442886853e+03 1.7629128671e+03 9.9904823632e+02 0.0000e+00 0.0000e+00
  5000521  1    3    3    0    0 +3.5799737710e+02 -2.5548135446e+02 +3.2664381894e+02 5.4793159148e+02 1.0000000000e+01 0.0000e+00 1.0000e+00
 -5000521  1    3    3    0    0 -4.5636882385e+02 +1.3666363564e+02 +1.1176448664e+03 1.2149812756e+03 1.0000000000e+01 0.0000e+00 -1.0000e+00
       21  1    1    2  502  501 +9.8371446753e+01 +1.1881771883e+02 +1.8150846629e+02 2.3820141725e+02 0.0000000000e+00 0.0000e+00 1.0000e+00
<mgrwt>
<rscale>  1 0.10108867E+04</rscale>
<asrwt>0</asrwt>
<pdfrwt beam="1">  1        1 0.27899318E+00 0.10108867E+04</pdfrwt>
<pdfrwt beam="2">  1       -1 0.28870550E-01 0.10108867E+04</pdfrwt>
<totfact> 0.43772605E+01</totfact>
</mgrwt>
</event>
<event>
 6      1 +3.0741590e+01 9.96692800e+02 7.81860800e-03 9.31218000e-02
       -1 -1    0    0    0  501 -0.0000000000e+00 +0.0000000000e+00 +3.1895655336e+02 3.1895655336e+02 0.0000000000e+00 0.0000e+00 1.0000e+00
        1 -1    0    0  502    0 +0.0000000000e+00 -0.0000000000e+00 -1.2940702732e+03 1.2940702732e+03 0.0000000000e+00 0.0000e+00 -1.0000e+00
  5000001  2    1    2    0    0 -1.2157319530e+01 +1.8320745258e+01 -1.1010633409e+03 1.4851723891e+03 9.9645024686e+02 0.0000e+00 0.0000e+00
  5000521  1    3    3    0    0 +5.0499611011e+01 +3.9529998973e+02 -9.6245764468e+01 4.1009211132e+02 1.0000000000e+01 0.0000e+00 -1.0000e+00
 -5000521  1    3    3    0    0 -6.2656930542e+01 -3.7697924447e+02 -1.0048175764e+03 1.0750802777e+03 1.0000000000e+01 0.0000e+00 1.0000e+00
       21  1    1    2  502  501 +1.2157319530e+01 -1.8320745258e+01 +1.2594962108e+02 1.2785443745e+02 0.0000000000e+00 0.0000e+00 -1.0000e+00
<mgrwt>
<rscale>  1 0.99669280E+03</rscale>
<asrwt>0</asrwt>
<pdfrwt beam="1">  1        1 0.19908774E+00 0.99669280E+03</pdfrwt>
<pdfrwt beam="2">  1       -1 0.49070239E-01 0.99669280E+03</pdfrwt>
<totfact> 0.38154719E+01</totfact>
</mgrwt>
</event>
<event>
 6      1 +3.0741590e+01 9.99710300e+02 7.81860800e-03 9.30886300e-02
        1 -1    0    0  502    0 +0.0000000000e+00 +0.0000000000e+00 +8.2705540098e+02 8.2705540098e+02 0.0000000000e+00 0.0000e+00 1.0000e+00
       -1 -1    0    0    0  501 -0.0000000000e+00 -0.0000000000e+00 -3.4852731457e+02 3.4852731457e+02 0.0000000000e+00 0.0000e+00 -1.0000e+00
  5000001  2    1    2    0    0 -3.1080272470e+01 +6.7008929992e+01 +4.5133909391e+02 1.0968717166e+03 9.9697763518e+02 0.0000e+00 0.0000e+00
  5000521  1    3    3    0    0 +1.4339214550e+02 -4.2044604001e+02 +6.1229932907e+01 4.4853682640e+02 1.0000000000e+01 0.0000e+00 1.0000e+00
 -5000521  1    3    3    0    0 -1.7447241797e+02 +4.8745497001e+02 +3.9010916100e+02 6.4833489025e+02 1.0000000000e+01 0.0000e+00 -1.0000e+00
       21  1    1    2  502  501 +3.1080272470e+01 -6.7008929992e+01 +2.7188992502e+01 7.8710998906e+01 0.0000000000e+00 0.0000e+00 -1.0000e+00
<mgrwt>
<rscale>  1 0.99971025E+03</rscale>
<asrwt>0</asrwt>
<pdfrwt beam="1">  1        1 0.12723929E+00 0.99971025E+03</pdfrwt>
<pdfrwt beam="2">  1       -1 0.53619587E-01 0.99971025E+03</pdfrwt>
<totfact> 0.73707130E+01</totfact>
</mgrwt>
</event>
<event>
 6      1 +3.0741590e+01 9.74506400e+02 7.81860800e-03 9.33695600e-02
        2 -1    0    0  502    0 +0.0000000000e+00 +0.0000000000e+00 +4.2939218173e+02 4.2939218173e+02 0.0000000000e+00 0.0000e+00 1.0000e+00
       -2 -1    0    0    0  501 -0.0000000000e+00 -0.0000000000e+00 -6.2777057956e+02 6.2777057956e+02 0.0000000000e+00 0.0000e+00 -1.0000e+00
  5000001  2    1    2    0    0 +2.5215407640e+01 +1.8850750736e+01 -2.4129649817e+02 1.0039355979e+03 9.7399769873e+02 0.0000e+00 0.0000e+00
  5000521  1    3    3    0    0 +9.7150761314e+01 +2.2349578345e+02 +3.1985213389e+02 4.0223627782e+02 1.0000000000e+01 0.0000e+00 1.0000e+00
 -5000521  1    3    3    0    0 -7.1935353674e+01 -2.0464503271e+02 -5.6114863206e+02 6.0169932008e+02 1.0000000000e+01 0.0000e+00 -1.0000e+00
       21  1    1    2  502  501 -2.5215407640e+01 -1.8850750736e+01 +4.2918100340e+01 5.3227163390e+01 0.0000000000e+00 0.0000e+00 1.0000e+00
<mgrwt>
<rscale>  1 0.97450638E+03</rscale>
<asrwt>0</asrwt>
<pdfrwt beam="1">  1        2 0.66060336E-01 0.97450638E+03</pdfrwt>
<pdfrwt beam="2">  1       -2 0.96580089E-01 0.97450638E+03</pdfrwt>
<totfact> 0.65758968E+01</totfact>
</mgrwt>
</event>
<event>
 6      1 +3.0741590e+01 1.00453400e+03 7.81860800e-03 9.30358600e-02
        2 -1    0    0  502    0 +0.0000000000e+00 +0.0000000000e+00 +1.2820781073e+03 1.2820781073e+03 0.0000000000e+00 0.0000e+00 -1.0000e+00
       -2 -1    0    0    0  501 -0.0000000000e+00 -0.0000000000e+00 -2.6283576365e+02 2.6283576365e+02 0.0000000000e+00 0.0000e+00 1.0000e+00
  5000001  2    1    2    0    0 +1.4715035758e+01 +2.6826998168e+01 +7.0038809766e+02 1.2245948888e+03 1.0040681921e+03 0.0000e+00 0.0000e+00
  5000521  1    3    3    0    0 -3.7516175001e+02 -2.9707987071e+02 +2.2228650569e+02 5.2774433096e+02 1.0000000000e+01 0.0000e+00 1.0000e+00
 -5000521  1    3    3    0    0 +3.8987678576e+02 +3.2390686888e+02 +4.7810159197e+02 6.9685055789e+02 1.0000000000e+01 0.0000e+00 -1.0000e+00
       21  1    1    2  502  501 -1.4715035758e+01 -2.6826998168e+01 +3.1885424602e+02 3.2031898213e+02 0.0000000000e+00 0.0000e+00 1.0000e+00
<mgrwt>
<rscale>  1 0.10045343E+04</rscale>
<asrwt>0</asrwt>
<pdfrwt beam="1">  1        2 0.19724278E+00 0.10045343E+04</pdfrwt>
<pdfrwt beam="2">  1       -2 0.40436272E-01 0.10045343E+04</pdfrwt>
<totfact> 0.97806506E+01</totfact>
</mgrwt>
</event>
<event>
 6      1 +3.0741590e+01 1.00480500e+03 7.81860800e-03 9.30329100e-02
       -2 -1    0    0    0  501 -0.0000000000e+00 +0.0000000000e+00 +1.1294367559e+02 1.1294367559e+02 0.0000000000e+00 0.0000e+00 1.0000e+00
        2 -1    0    0  502    0 +0.0000000000e+00 -0.0000000000e+00 -2.5954466109e+03 2.5954466109e+03 0.0000000000e+00 0.0000e+00 -1.0000e+00
  5000001  2    1    2    0    0 +2.5102740888e+01 -2.5529372313e+01 -2.4758446219e+03 2.6719728513e+03 1.0041665348e+03 0.0000e+00 0.0000e+00
  5000521  1    3    3    0    0 -2.8986546283e+02 -1.8508834375e+02 -2.1919971316e+03 2.2188355294e+03 1.0000000000e+01 0.0000e+00 -1.0000e+00
 -5000521  1    3    3    0    0 +3.1496820372e+02 +1.5955897144e+02 -2.8384749034e+02 4.5313732189e+02 1.0000000000e+01 0.0000e+00 1.0000e+00
       21  1    1    2  502  501 -2.5102740888e+01 +2.5529372313e+01 -6.6583133953e+00 3.6417435221e+01 0.0000000000e+00 0.0000e+00 -1.0000e+00
<mgrwt>
<rscale>  1 0.10048046E+04</rscale>
<asrwt>0</asrwt>
<pdfrwt beam="1">  1        2 0.39929951E+00 0.10048046E+04</pdfrwt>
<pdfrwt beam="2">  1       -2 0.17375949E-01 0.10048046E+04</pdfrwt>
<totfact> 0.84606599E+01</totfact>
</mgrwt>
</event>
<event>
 6      1 +3.0741590e+01 1.00610700e+03 7.81860800e-03 9.30187200e-02
        2 -1    0    0  502    0 +0.0000000000e+00 +0.0000000000e+00 +5.2103885847e+02 5.2103885847e+02 0.0000000000e+00 0.0000e+00 1.0000e+00
       -2 -1    0    0    0  501 -0.0000000000e+00 -0.0000000000e+00 -5.3106828896e+02 5.3106828896e+02 0.0000000000e+00 0.0000e+00 -1.0000e+00
  5000001  2    1    2    0    0 +1.6286668870e+01 -1.6869700737e+01 -4.8253414723e+01 1.0072639165e+03 1.0058341629e+03 0.0000e+00 0.0000e+00
  5000521  1    3    3    0    0 -1.8597805497e+02 +1.4017562793e+02 -4.6378067788e+02 5.1906604663e+02 1.0000000000e+01 0.0000e+00 -1.0000e+00
 -5000521  1    3    3    0    0 +2.0226472384e+02 -1.5704532866e+02 +4.1552726315e+02 4.8819786991e+02 1.0000000000e+01 0.0000e+00 1.0000e+00
       21  1    1    2  502  501 -1.6286668870e+01 +1.6869700737e+01 +3.8223984234e+01 4.4843230889e+01 0.0000000000e+00 0.0000e+00 -1.0000e+00
<mgrwt>
<rscale>  1 0.10061075E+04</rscale>
<asrwt>0</asrwt>
<pdfrwt beam="1">  1        2 0.80159824E-01 0.10061075E+04</pdfrwt>
<pdfrwt beam="2">  1       -2 0.81702814E-01 0.10061075E+04</pdfrwt>
<totfact> 0.77216210E+01</totfact>
</mgrwt>
</event>
<event>
 6      1 +3.0741590e+01 9.91828300e+02 7.81860800e-03 9.31755300e-02
       -2 -1    0    0    0  501 -0.0000000000e+00 +0.0000000000e+00 +9.7602007323e+02 9.7602007323e+02 0.0000000000e+00 0.0000e+00 1.0000e+00
        2 -1    0    0  502    0 +0.0000000000e+00 -0.0000000000e+00 -2.7934569969e+02 2.7934569969e+02 0.0000000000e+00 0.0000e+00 -1.0000e+00
  5000001  2    1    2    0    0 -1.4801985470e+01 -2.6995473358e+01 +7.1204476004e+02 1.2209549732e+03 9.9135031746e+02 0.0000e+00 0.0000e+00
  5000521  1    3    3    0    0 +2.0705676073e+02 -4.4971787594e+02 +2.4296739617e+02 5.5159026976e+02 1.0000000000e+01 0.0000e+00 -1.0000e+00
 -5000521  1    3    3    0    0 -2.2185874620e+02 +4.2272240258e+02 +4.6907736388e+02 6.6936470344e+02 1.0000000000e+01 0.0000e+00 1.0000e+00
       21  1    1    2  502  501 +1.4801985470e+01 +2.6995473358e+01 -1.5370386502e+01 3.4410799713e+01 0.0000000000e+00 0.0000e+00 1.0000e+00
<mgrwt>
<rscale>  1 0.99182826E+03</rscale>
<asrwt>0</asrwt>
<pdfrwt beam="1">  1        2 0.42976262E-01 0.99182826E+03</pdfrwt>
<pdfrwt beam="2">  1       -2 0.15015693E+00 0.99182826E+03</pdfrwt>
<totfact> 0.35436466E+01</totfact>
</mgrwt>
</event>
<event>
 6      1 +3.0741590e+01 9.86901600e+02 7.81860800e-03 9.32302900e-02
        1 -1    0    0  502    0 -0.0000000000e+00 +0.0000000000e+00 +1.2329877045e+03 1.2329877045e+03 0.0000000000e+00 0.0000e+00 1.0000e+00
       21 -1    0    0  501  502 +0.0000000000e+00 -0.0000000000e+00 -2.4658474342e+02 2.4658474342e+02 0.0000000000e+00 0.0000e+00 -1.0000e+00
  5000001  2    1    2    0    0 +8.8624081161e+01 +6.0315124317e+01 +9.3941518977e+02 1.3625254803e+03 9.8106199786e+02 0.0000e+00 0.0000e+00
  5000521  1    3    3    0    0 +3.5483168845e+02 +1.7795138375e+02 +9.9026195138e+02 1.0669071911e+03 1.0000000000e+01 0.0000e+00 1.0000e+00
 -5000521  1    3    3    0    0 -2.6620760729e+02 -1.1763625943e+02 -5.0846761616e+01 2.9561828915e+02 1.0000000000e+01 0.0000e+00 -1.0000e+00
        1  1    1    2  501    0 -8.8624081161e+01 -6.0315124317e+01 +4.6987771301e+01 1.1704696764e+02 0.0000000000e+00 0.0000e+00 1.0000e+00
<mgrwt>
<rscale>  1 0.98690161E+03</rscale>
<asrwt>0</asrwt>
<pdfrwt beam="1">  1       21 0.37936115E-01 0.98690161E+03</pdfrwt>
<pdfrwt beam="2">  1        1 0.18969041E+00 0.98690161E+03</pdfrwt>
<totfact> 0.67584916E+02</totfact>
</mgrwt>
</event>
<event>
 6      1 +3.0741590e+01 1.04307500e+03 7.81860800e-03 9.26252300e-02
       -2 -1    0    0    0  501 -0.0000000000e+00 +0.0000000000e+00 +7.3128279067e+02 7.3128279067e+02 0.0000000000e+00 0.0000e+00 -1.0000e+00
        2 -1    0    0  502    0 +0.0000000000e+00 -0.0000000000e+00 -1.3987278631e+03 1.3987278631e+03 0.0000000000e+00 0.0000e+00 1.0000e+00
  5000001  2    1    2    0    0 +2.9905802622e+02 +6.1182345784e+01 +3.2432011119e+02 1.0923319164e+03 9.9740989501e+02 0.0000e+00 0.0000e+00
  5000521  1    3    3    0    0 +5.9915664553e+02 +4.9390965808e+01 +4.6541918834e+02 7.6035726751e+02 1.0000000000e+01 0.0000e+00 -1.0000e+00
 -5000521  1    3    3    0    0 -3.0009861931e+02 +1.1791379976e+01 -1.4109907715e+02 3.3197464892e+02 1.0000000000e+01 0.0000e+00 1.0000e+00
       21  1    1    2  502  501 -2.9905802622e+02 -6.1182345784e+01 -9.9176518361e+02 1.0376787373e+03 0.0000000000e+00 0.0000e+00 -1.0000e+00
<mgrwt>
<rscale>  1 0.10430750E+04</rscale>
<asrwt>0</asrwt>
<pdfrwt beam="1">  1        2 0.21518890E+00 0.10430750E+04</pdfrwt>
<pdfrwt beam="2">  1       -2 0.11250505E+00 0.10430750E+04</pdfrwt>
<totfact> 0.89241882E+00</totfact>
</mgrwt>
</event>
<event>
 5      1 +3.0741590e+01 1.21807300e+03 7.81860800e-03 9.09718200e-02
       -1 -1    0    0    0  501 -0.0000000000e+00 +0.0000000000e+00 +7.4130152875e+02 7.4130152875e+02 0.0000000000e+00 0.0000e+00 1.0000e+00
        1 -1    0    0  502    0 +0.0000000000e+00 -0.0000000000e+00 -5.4070585286e+02 5.4070585286e+02 0.0000000000e+00 0.0000e+00 -1.0000e+00
  5000521  1    1    2    0    0 -3.8096122538e+02 -3.6403452556e+02 -1.9954671850e+02 5.6353481162e+02 1.0000000000e+01 0.0000e+00 -1.0000e+00
 -5000521  1    1    2    0    0 +3.5790188615e+02 +3.7770264949e+02 +4.3233241080e+02 6.7658285891e+02 1.0000000000e+01 0.0000e+00 1.0000e+00
       21  1    1    2  502  501 +2.3059339227e+01 -1.3668123934e+01 -3.2190016414e+01 4.1889711078e+01 0.0000000000e+00 0.0000e+00 1.0000e+00
<mgrwt>
<rscale>  1 0.12180733E+04</rscale>
<asrwt>0</asrwt>
<pdfrwt beam="1">  1        1 0.83185516E-01 0.12180733E+04</pdfrwt>
<pdfrwt beam="2">  1       -1 0.11404639E+00 0.12180733E+04</pdfrwt>
<totfact> 0.27498273E+01</totfact>
</mgrwt>
</event>
<event>
 6      1 +3.0741590e+01 1.00632600e+03 7.81860800e-03 9.30163400e-02
       -2 -1    0    0    0  501 -0.0000000000e+00 +0.0000000000e+00 +1.3792398600e+02 1.3792398600e+02 0.0000000000e+00 0.0000e+00 1.0000e+00
        2 -1    0    0  502    0 +0.0000000000e+00 -0.0000000000e+00 -2.0255472742e+03 2.0255472742e+03 0.0000000000e+00 0.0000e+00 -1.0000e+00
  5000001  2    1    2    0    0 -1.2611496222e+01 +3.3887123708e+01 -1.7267864450e+03 1.9986201846e+03 1.0056758070e+03 0.0000e+00 0.0000e+00
  5000521  1    3    3    0    0 +4.7597679528e+02 -1.1711084466e+02 -7.5022707905e+02 8.9621957674e+02 1.0000000000e+01 0.0000e+00 -1.0000e+00
 -5000521  1    3    3    0    0 -4.8858829151e+02 +1.5099796837e+02 -9.7655936592e+02 1.1024006079e+03 1.0000000000e+01 0.0000e+00 1.0000e+00
       21  1    1    2  502  501 +1.2611496222e+01 -3.3887123708e+01 -1.6083684325e+02 1.6485107564e+02 0.0000000000e+00 0.0000e+00 1.0000e+00
<mgrwt>
<rscale>  1 0.10063256E+04</rscale>
<asrwt>0</asrwt>
<pdfrwt beam="1">  1        2 0.31162265E+00 0.10063256E+04</pdfrwt>
<pdfrwt beam="2">  1       -2 0.21219076E-01 0.10063256E+04</pdfrwt>
<totfact> 0.12474261E+02</totfact>
</mgrwt>
</event>
<event>
 6      1 +3.0741590e+01 1.02515300e+03 7.81860800e-03 9.28138000e-02
       21 -1    0    0  501  502 +0.0000000000e+00 +0.0000000000e+00 +3.8845149971e+02 3.8845149971e+02 0.0000000000e+00 0.0000e+00 1.0000e+00
        2 -1    0    0  502    0 -0.0000000000e+00 -0.0000000000e+00 -1.3526340342e+03 1.3526340342e+03 0.0000000000e+00 0.0000e+00 1.0000e+00
  5000001  2    1    2    0    0 -2.2992562612e+02 -2.0301301442e+02 -1.0002045988e+03 1.4322527851e+03 9.7819155764e+02 0.0000e+00 0.0000e+00
  5000521  1    3    3    0    0 +8.3064264279e+01 -3.9650670035e+02 -4.3973561459e+01 4.0761613011e+02 1.0000000000e+01 0.0000e+00 -1.0000e+00
 -5000521  1    3    3    0    0 -3.1298989040e+02 +1.9349368593e+02 -9.5623103737e+02 1.0246366550e+03 1.0000000000e+01 0.0000e+00 1.0000e+00
        2  1    1    2  501    0 +2.2992562612e+02 +2.0301301442e+02 +3.6022064372e+01 3.0883274874e+02 0.0000000000e+00 0.0000e+00 1.0000e+00
<mgrwt>
<rscale>  1 0.10251531E+04</rscale>
<asrwt>0</asrwt>
<pdfrwt beam="1">  1       21 0.59761769E-01 0.10251531E+04</pdfrwt>
<pdfrwt beam="2">  1        2 0.20809754E+00 0.10251531E+04</pdfrwt>
<totfact> 0.43821408E+02</totfact>
</mgrwt>
</event>
<event>
 6      1 +3.0741590e+01 1.00879400e+03 7.81860800e-03 9.29895200e-02
       -2 -1    0    0    0  501 -0.0000000000e+00 +0.0000000000e+00 +1.4360430608e+03 1.4360430608e+03 0.0000000000e+00 0.0000e+00 -1.0000e+00
        2 -1    0    0  502    0 +0.0000000000e+00 -0.0000000000e+00 -1.8968441836e+02 1.8968441836e+02 0.0000000000e+00 0.0000e+00 1.0000e+00
  5000001  2    1    2    0    0 +1.8297233419e+01 -1.4139812741e+01 +1.2452239570e+03 1.6025755772e+03 1.0085291540e+03 0.0000e+00 0.0000e+00
  5000521  1    3    3    0    0 +1.5888806116e+02 -5.9003795180e+01 +1.3871986151e+03 1.3975503073e+03 1.0000000000e+01 0.0000e+00 -1.0000e+00
 -5000521  1    3    3    0    0 -1.4059082774e+02 +4.4863982439e+01 -1.4197465803e+02 2.0502526988e+02 1.0000000000e+01 0.0000e+00 1.0000e+00
       21  1    1    2  502  501 -1.8297233419e+01 +1.4139812741e+01 +1.1346854265e+00 2.3151901999e+01 0.0000000000e+00 0.0000e+00 1.0000e+00
<mgrwt>
<rscale>  1 0.10087942E+04</rscale>
<asrwt>0</asrwt>
<pdfrwt beam="1">  1        2 0.29182219E-01 0.10087942E+04</pdfrwt>
<pdfrwt beam="2">  1       -2 0.22092970E+00 0.10087942E+04</pdfrwt>
<totfact> 0.17925706E+01</totfact>
</mgrwt>
</event>
<event>
 6      1 +3.0741590e+01 1.02222200e+03 7.81860800e-03 9.28450200e-02
       21 -1    0    0  501  502 +0.0000000000e+00 +0.0000000000e+00 +2.0522229968e+02 2.0522229968e+02 0.0000000000e+00 0.0000e+00 -1.0000e+00
        1 -1    0    0  502    0 -0.0000000000e+00 -0.0000000000e+00 -1.5678103915e+03 1.5678103915e+03 0.0000000000e+00 0.0000e+00 1.0000e+00
  5000001  2    1    2    0    0 +1.2443134500e+01 -2.2507901171e+01 -1.3963884983e+03 1.7305602921e+03 1.0218985513e+03 0.0000e+00 0.0000e+00
  5000521  1    3    3    0    0 -1.9938517143e+02 -4.6132931180e+02 -4.9295605994e+02 7.0404890281e+02 1.0000000000e+01 0.0000e+00 -1.0000e+00
 -5000521  1    3    3    0    0 +2.1182830593e+02 +4.3882141063e+02 -9.0343243839e+02 1.0265113893e+03 1.0000000000e+01 0.0000e+00 1.0000e+00
        1  1    1    2  501    0 -1.2443134500e+01 +2.2507901171e+01 +3.3800406455e+01 4.2472399130e+01 0.0000000000e+00 0.0000e+00 1.0000e+00
<mgrwt>
<rscale>  1 0.10222221E+04</rscale>
<asrwt>0</asrwt>
<pdfrwt beam="1">  1       21 0.31572663E-01 0.10222221E+04</pdfrwt>
<pdfrwt beam="2">  1        1 0.24120159E+00 0.10222221E+04</pdfrwt>
<totfact> 0.57135054E+02</totfact>
</mgrwt>
</event>
<event>
 6      1 +3.0741590e+01 1.00788300e+03 7.81860800e-03 9.29994000e-02
        1 -1    0    0  502    0 +0.0000000000e+00 +0.0000000000e+00 +7.6847852535e+02 7.6847852535e+02 0.0000000000e+00 0.0000e+00 1.0000e+00
       -1 -1    0    0    0  501 -0.0000000000e+00 -0.0000000000e+00 -3.6873362428e+02 3.6873362428e+02 0.0000000000e+00 0.0000e+00 -1.0000e+00
  5000001  2    1    2    0    0 -4.4342169899e+01 -2.3336778635e+01 +4.0626184476e+02 1.0866819228e+03 1.0066370158e+03 0.0000e+00 0.0000e+00
  5000521  1    3    3    0    0 -3.9013537152e+02 +3.1669754954e+02 +3.1484742385e+02 5.9306984943e+02 1.0000000000e+01 0.0000e+00 -1.0000e+00
 -5000521  1    3    3    0    0 +3.4579320162e+02 -3.4003432818e+02 +9.1414420903e+01 4.9361207337e+02 1.0000000000e+01 0.0000e+00 1.0000e+00
       21  1    1    2  502  501 +4.4342169899e+01 +2.3336778635e+01 -6.5169436933e+00 5.0530226830e+01 0.0000000000e+00 0.0000e+00 -1.0000e+00
<mgrwt>
<rscale>  1 0.10078834E+04</rscale>
<asrwt>0</asrwt>
<pdfrwt beam="1">  1        1 0.11822747E+00 0.10078834E+04</pdfrwt>
<pdfrwt beam="2">  1       -1 0.56728250E-01 0.10078834E+04</pdfrwt>
<totfact> 0.74301299E+01</totfact>
</mgrwt>
</event>
<event>
 6      1 +3.0741590e+01 1.00908100e+03 7.81860800e-03 9.29864100e-02
        2 -1    0    0  502    0 +0.0000000000e+00 +0.0000000000e+00 +1.1812828308e+03 1.1812828308e+03 0.0000000000e+00 0.0000e+00 -1.0000e+00
       -2 -1    0    0    0  501 -0.0000000000e+00 -0.0000000000e+00 -2.2626011986e+02 2.2626011986e+02 0.0000000000e+00 0.0000e+00 1.0000e+00
  5000001  2    1    2    0    0 -1.9852170729e+01 +1.4944474679e+01 +9.3411037257e+02 1.3750656986e+03 1.0087745245e+03 0.0000e+00 0.0000e+00
  5000521  1    3    3    0    0 -1.2087904203e+02 +1.5839407210e+02 -1.6690638604e+02 2.6011183476e+02 1.0000000000e+01 0.0000e+00 1.0000e+00
 -5000521  1    3    3    0    0 +1.0102687130e+02 -1.4344959742e+02 +1.1010167586e+03 1.1149538638e+03 1.0000000000e+01 0.0000e+00 -1.0000e+00
       21  1    1    2  502  501 +1.9852170729e+01 -1.4944474679e+01 +2.0912338357e+01 3.2477252064e+01 0.0000000000e+00 0.0000e+00 -1.0000e+00
<mgrwt>
<rscale>  1 0.10090805E+04</rscale>
<asrwt>0</asrwt>
<pdfrwt beam="1">  1        2 0.18173582E+00 0.10090805E+04</pdfrwt>
<pdfrwt beam="2">  1       -2 0.34809250E-01 0.10090805E+04</pdfrwt>
<totfact> 0.14997495E+02</totfact>
</mgrwt>
</event>
<event>
 6      1 +3.0741590e+01 9.83659900e+02 7.81860800e-03 9.32665000e-02
       -1 -1    0    0    0  501 -0.0000000000e+00 +0.0000000000e+00 +6.6244551033e+02 6.6244551033e+02 0.0000000000e+00 0.0000e+00 1.0000e+00
        1 -1    0    0  502    0 +0.0000000000e+00 -0.0000000000e+00 -4.1203924576e+02 4.1203924576e+02 0.0000000000e+00 0.0000e+00 -1.0000e+00
  5000001  2    1    2    0    0 -6.5716704433e+00 +6.0765638917e+01 +2.3192060397e+02 1.0106304738e+03 9.8175920582e+02 0.0000e+00 0.0000e+00
  5000521  1    3    3    0    0 +4.3440552129e+01 -3.2992278909e+02 +4.5041587270e+02 5.6009872943e+02 1.0000000000e+01 0.0000e+00 1.0000e+00
 -5000521  1    3    3    0    0 -5.0012222572e+01 +3.9068842801e+02 -2.1849526873e+02 4.5053174432e+02 1.0000000000e+01 0.0000e+00 -1.0000e+00
       21  1    1    2  502  501 +6.5716704433e+00 -6.0765638917e+01 +1.8485660594e+01 6.3854282338e+01 0.0000000000e+00 0.0000e+00 -1.0000e+00
<mgrwt>
<rscale>  1 0.98365989E+03</rscale>
<asrwt>0</asrwt>
<pdfrwt beam="1">  1        1 0.63390653E-01 0.98365989E+03</pdfrwt>
<pdfrwt beam="2">  1       -1 0.10191469E+00 0.98365989E+03</pdfrwt>
<totfact> 0.52829791E+01</totfact>
</mgrwt>
</event>
<event>
 6      1 +3.0741590e+01 9.92476300e+02 7.81860800e-03 9.31683500e-02
       -2 -1    0    0    0  501 -0.0000000000e+00 +0.0000000000e+00 +2.2357463016e+02 2.2357463016e+02 0.0000000000e+00 0.0000e+00 1.0000e+00
        2 -1    0    0  502    0 +0.0000000000e+00 -0.0000000000e+00 -1.1624163436e+03 1.1624163436e+03 0.0000000000e+00 0.0000e+00 -1.0000e+00
  5000001  2    1    2    0    0 +5.1858698482e+00 +2.2627664130e+01 -9.3273883714e+02 1.3619878588e+03 9.9220475945e+02 0.0000e+00 0.0000e+00
  5000521  1    3    3    0    0 +4.2426689029e+02 -2.3317996495e+02 -5.8929588351e+02 7.6272205198e+02 1.0000000000e+01 0.0000e+00 -1.0000e+00
 -5000521  1    3    3    0    0 -4.1908102044e+02 +2.5580762908e+02 -3.4344295362e+02 5.9926580678e+02 1.0000000000e+01 0.0000e+00 1.0000e+00
       21  1    1    2  502  501 -5.1858698482e+00 -2.2627664130e+01 -6.1028762787e+00 2.4003114984e+01 0.0000000000e+00 0.0000e+00 -1.0000e+00
<mgrwt>
<rscale>  1 0.99247629E+03</rscale>
<asrwt>0</asrwt>
<pdfrwt beam="1">  1        2 0.17883328E+00 0.99247629E+03</pdfrwt>
<pdfrwt beam="2">  1       -2 0.34396098E-01 0.99247629E+03</pdfrwt>
<totfact> 0.15764280E+02</totfact>
</mgrwt>
</event>
<event>
 6      1 +3.0741590e+01 1.00502100e+03 7.81860800e-03 9.30305500e-02
        2 -1    0    0  502    0 +0.0000000000e+00 +0.0000000000e+00 +4.5024953901e+02 4.5024953901e+02 0.0000000000e+00 0.0000e+00 1.0000e+00
       -2 -1    0    0    0  501 -0.0000000000e+00 -0.0000000000e+00 -6.0569579448e+02 6.0569579448e+02 0.0000000000e+00 0.0000e+00 -1.0000e+00
  5000001  2    1    2    0    0 -1.5275579886e+01 -1.3182928413e+01 -1.8325100010e+02 1.0215907593e+03 1.0048182012e+03 0.0000e+00 0.0000e+00
  5000521  1    3    3    0    0 -2.3411705497e+02 +1.5387203230e+01 +3.6300972606e+02 4.3234664641e+02 1.0000000000e+01 0.0000e+00 1.0000e+00
 -5000521  1    3    3    0    0 +2.1884147509e+02 -2.8570131643e+01 -5.4626072616e+02 5.8924411290e+02 1.0000000000e+01 0.0000e+00 -1.0000e+00
       21  1    1    2  502  501 +1.5275579886e+01 +1.3182928413e+01 +2.7804744633e+01 3.4354574171e+01 0.0000000000e+00 0.0000e+00 1.0000e+00
<mgrwt>
<rscale>  1 0.10050208E+04</rscale>
<asrwt>0</asrwt>
<pdfrwt beam="1">  1        2 0.69269160E-01 0.10050208E+04</pdfrwt>
<pdfrwt beam="2">  1       -2 0.93183968E-01 0.10050208E+04</pdfrwt>
<totfact> 0.67639148E+01</totfact>
</mgrwt>
</event>
<event>
 6      1 +3.0741590e+01 1.01951800e+03 7.81860800e-03 9.28739300e-02
       -1 -1    0    0    0  501 -0.0000000000e+00 +0.0000000000e+00 +5.7653446605e+02 5.7653446605e+02 0.0000000000e+00 0.0000e+00 1.0000e+00
        1 -1    0    0  502    0 +0.0000000000e+00 -0.0000000000e+00 -8.1262271274e+02 8.1262271274e+02 0.0000000000e+00 0.0000e+00 -1.0000e+00
  5000001  2    1    2    0    0 +1.5301121581e+02 +3.9014054370e+01 -4.5728971729e+02 1.1173767174e+03 1.0072151282e+03 0.0000e+00 0.0000e+00
  5000521  1    3    3    0    0 +1.0461613241e+02 -1.5575556465e+01 +3.1970776605e+02 3.3689789075e+02 1.0000000000e+01 0.0000e+00 1.0000e+00
 -5000521  1    3    3    0    0 +4.8395083402e+01 +5.4589610835e+01 -7.7699748335e+02 7.8047882664e+02 1.0000000000e+01 0.0000e+00 -1.0000e+00
       21  1    1    2  502  501 -1.5301121581e+02 -3.9014054370e+01 +2.2120147060e+02 2.7178046140e+02 0.0000000000e+00 0.0000e+00 1.0000e+00
<mgrwt>
<rscale>  1 0.10195179E+04</rscale>
<asrwt>0</asrwt>
<pdfrwt beam="1">  1        1 0.12501888E+00 0.10195179E+04</pdfrwt>
<pdfrwt beam="2">  1       -1 0.88697610E-01 0.10195179E+04</pdfrwt>
<totfact> 0.26918185E+01</totfact>
</mgrwt>
</event>
<event>
 6      1 +3.0741590e+01 1.09461400e+03 7.81860800e-03 9.21045700e-02
        1 -1    0    0  502    0 +0.0000000000e+00 +0.0000000000e+00 +1.3333419955e+03 1.3333419955e+03 0.0000000000e+00 0.0000e+00 1.0000e+00
       -1 -1    0    0    0  501 -0.0000000000e+00 -0.0000000000e+00 -2.6089167160e+02 2.6089167160e+02 0.0000000000e+00 0.0000e+00 -1.0000e+00
  5000001  2    1    2    0    0 +4.3455257948e+01 -2.4576331264e+01 +9.0744997605e+02 1.4218461087e+03 1.0934754420e+03 0.0000e+00 0.0000e+00
  5000521  1    3    3    0    0 -1.3203646430e+02 -3.4202264100e+02 -7.5155165711e+01 3.7438137480e+02 1.0000000000e+01 0.0000e+00 -1.0000e+00
 -5000521  1    3    3    0    0 +1.7549172225e+02 +3.1744630974e+02 +9.8260514176e+02 1.0474647339e+03 1.0000000000e+01 0.0000e+00 1.0000e+00
       21  1    1    2  502  501 -4.3455257948e+01 +2.4576331264e+01 +1.6500034786e+02 1.7238755841e+02 0.0000000000e+00 0.0000e+00 1.0000e+00
<mgrwt>
<rscale>  1 0.10946145E+04</rscale>
<asrwt>0</asrwt>
<pdfrwt beam="1">  1        1 0.20512953E+00 0.10946145E+04</pdfrwt>
<pdfrwt beam="2">  1       -1 0.40137181E-01 0.10946145E+04</pdfrwt>
<totfact> 0.51647354E+01</totfact>
</mgrwt>
</event>
<event>
 6      1 +3.0741590e+01 1.01360300e+03 7.81860800e-03 9.29375000e-02
       -1 -1    0    0    0  501 -0.0000000000e+00 +0.0000000000e+00 +1.9546340067e+02 1.9546340067e+02 0.0000000000e+00 0.0000e+00 -1.0000e+00
        1 -1    0    0  502    0 +0.0000000000e+00 -0.0000000000e+00 -1.4795197197e+03 1.4795197197e+03 0.0000000000e+00 0.0000e+00 1.0000e+00
  5000001  2    1    2    0    0 -7.2767078777e+00 +5.3812330978e+01 -1.1655948402e+03 1.5446687335e+03 1.0121469496e+03 0.0000e+00 0.0000e+00
  5000521  1    3    3    0    0 +2.1940764249e+02 -3.1088835859e+02 -9.6751792525e+01 3.9274953144e+02 1.0000000000e+01 0.0000e+00 -1.0000e+00
 -5000521  1    3    3    0    0 -2.2668435037e+02 +3.6470068956e+02 -1.0688430477e+03 1.1519192021e+03 1.0000000000e+01 0.0000e+00 1.0000e+00
       21  1    1    2  502  501 +7.2767078777e+00 -5.3812330978e+01 -1.1846147888e+02 1.3031438685e+02 0.0000000000e+00 0.0000e+00 1.0000e+00
<mgrwt>
<rscale>  1 0.10136026E+04</rscale>
<asrwt>0</asrwt>
<pdfrwt beam="1">  1        1 0.22761843E+00 0.10136026E+04</pdfrwt>
<pdfrwt beam="2">  1       -1 0.30071291E-01 0.10136026E+04</pdfrwt>
<totfact> 0.68834240E+01</totfact>
</mgrwt>
</event>
<event>
 6      1 +3.0741590e+01 1.00237900e+03 7.81860800e-03 9.30593900e-02
       -2 -1    0    0    0  501 -0.0000000000e+00 +0.0000000000e+00 +2.9841297161e+02 2.9841297161e+02 0.0000000000e+00 0.0000e+00 1.0000e+00
        2 -1    0    0  502    0 +0.0000000000e+00 -0.0000000000e+00 -1.1187893094e+03 1.1187893094e+03 0.0000000000e+00 0.0000e+00 -1.0000e+00
  5000001  2    1    2    0    0 +9.4599998732e+01 +7.7354761794e+01 -6.0852179462e+02 1.1726306833e+03 9.9490252085e+02 0.0000e+00 0.0000e+00
  5000521  1    3    3    0    0 +7.9773822269e+01 +4.3334906233e+02 -6.7878968594e+02 8.0932731962e+02 1.0000000000e+01 0.0000e+00 -1.0000e+00
 -5000521  1    3    3    0    0 +1.4826176463e+01 -3.5599430054e+02 +7.0267891324e+01 3.6330336370e+02 1.0000000000e+01 0.0000e+00 1.0000e+00
       21  1    1    2  502  501 -9.4599998732e+01 -7.7354761794e+01 -2.1185454316e+02 2.4457159768e+02 0.0000000000e+00 0.0000e+00 -1.0000e+00
<mgrwt>
<rscale>  1 0.10023791E+04</rscale>
<asrwt>0</asrwt>
<pdfrwt beam="1">  1        2 0.17212143E+00 0.10023791E+04</pdfrwt>
<pdfrwt beam="2">  1       -2 0.45909688E-01 0.10023791E+04</pdfrwt>
<totfact> 0.95188455E+01</totfact>
</mgrwt>
</event>
<event>
 6      1 +3.0741590e+01 1.06420700e+03 7.81860800e-03 9.24079800e-02
        1 -1    0    0  502    0 +0.0000000000e+00 +0.0000000000e+00 +1.6885892101e+03 1.6885892101e+03 0.0000000000e+00 0.0000e+00 1.0000e+00
       -1 -1    0    0    0  501 -0.0000000000e+00 -0.0000000000e+00 -1.7795088527e+02 1.7795088527e+02 0.0000000000e+00 0.0000e+00 -1.0000e+00
  5000001  2    1    2    0    0 +2.0196422862e+01 +1.5055206878e+01 +1.5000660859e+03 1.8392211096e+03 1.0639085830e+03 0.0000e+00 0.0000e+00
  5000521  1    3    3    0    0 -4.7115210952e+02 +1.4626913062e+02 +1.0494511519e+03 1.1596666285e+03 1.0000000000e+01 0.0000e+00 1.0000e+00
 -5000521  1    3    3    0    0 +4.9134853238e+02 -1.3121392374e+02 +4.5061493398e+02 6.7955448110e+02 1.0000000000e+01 0.0000e+00 -1.0000e+00
       21  1    1    2  502  501 -2.0196422862e+01 -1.5055206878e+01 +1.0572238944e+01 2.7318985832e+01 0.0000000000e+00 0.0000e+00 -1.0000e+00
<mgrwt>
<rscale>  1 0.10642068E+04</rscale>
<asrwt>0</asrwt>
<pdfrwt beam="1">  1        1 0.25978294E+00 0.10642068E+04</pdfrwt>
<pdfrwt beam="2">  1       -1 0.27377060E-01 0.10642068E+04</pdfrwt>
<totfact> 0.58079800E+01</totfact>
</mgrwt>
</event>
<event>
 6      1 +3.0741590e+01 9.99524400e+02 7.81860800e-03 9.30906700e-02
       -2 -1    0    0    0  501 -0.0000000000e+00 +0.0000000000e+00 +3.4087226338e+02 3.4087226338e+02 0.0000000000e+00 0.0000e+00 -1.0000e+00
        2 -1    0    0  502    0 +0.0000000000e+00 -0.0000000000e+00 -1.0807151532e+03 1.0807151532e+03 0.0000000000e+00 0.0000e+00 1.0000e+00
  5000001  2    1    2    0    0 +2.2334977071e+01 -1.4454134656e+01 -8.4764336607e+02 1.3105526657e+03 9.9917027600e+02 0.0000e+00 0.0000e+00
  5000521  1    3    3    0    0 +1.5767612234e+02 -3.7456552809e+02 -8.3129469028e+02 9.2537125332e+02 1.0000000000e+01 0.0000e+00 1.0000e+00
 -5000521  1    3    3    0    0 -1.3534114527e+02 +3.6011139343e+02 -1.6348675794e+01 3.8518141243e+02 1.0000000000e+01 0.0000e+00 -1.0000e+00
       21  1    1    2  502  501 -2.2334977071e+01 +1.4454134656e+01 +1.0780047626e+02 1.1103475082e+02 0.0000000000e+00 0.0000e+00 -1.0000e+00
<mgrwt>
<rscale>  1 0.99952439E+03</rscale>
<asrwt>0</asrwt>
<pdfrwt beam="1">  1        2 0.16626387E+00 0.99952439E+03</pdfrwt>
<pdfrwt beam="2">  1       -2 0.52441888E-01 0.99952439E+03</pdfrwt>
<totfact> 0.76650845E+01</totfact>
</mgrwt>
</event>
<event>
 6      1 +3.0741590e+01 9.96335400e+02 7.81860800e-03 9.31257300e-02
       21 -1    0    0  501  502 +0.0000000000e+00 +0.0000000000e+00 +2.7975893318e+02 2.7975893318e+02 0.0000000000e+00 0.0000e+00 -1.0000e+00
        1 -1    0    0  502    0 -0.0000000000e+00 -0.0000000000e+00 -1.1226562994e+03 1.1226562994e+03 0.0000000000e+00 0.0000e+00 1.0000e+00
  5000001  2    1    2    0    0 -1.0975427277e+02 +4.6067134896e+01 -7.9281015522e+02 1.2732761215e+03 9.8919965528e+02 0.0000e+00 0.0000e+00
  5000521  1    3    3    0    0 +1.6860152199e+02 +2.9311177109e+02 +5.9237316179e+01 3.4343855811e+02 1.0000000000e+01 0.0000e+00 -1.0000e+00
 -5000521  1    3    3    0    0 -2.7835579476e+02 -2.4704463619e+02 -8.5204747140e+02 9.2983756338e+02 1.0000000000e+01 0.0000e+00 1.0000e+00
        1  1    1    2  501    0 +1.0975427277e+02 -4.6067134896e+01 -5.0087211004e+01 1.2913911110e+02 0.0000000000e+00 0.0000e+00 1.0000e+00
<mgrwt>
<rscale>  1 0.99633535E+03</rscale>
<asrwt>0</asrwt>
<pdfrwt beam="1">  1       21 0.43039836E-01 0.99633535E+03</pdfrwt>
<pdfrwt beam="2">  1        1 0.17271635E+00 0.99633535E+03</pdfrwt>
<totfact> 0.62446687E+02</totfact>
</mgrwt>
</event>
<event>
 6      1 +3.0741590e+01 9.98438000e+02 7.81860800e-03 9.31026000e-02
        2 -1    0    0  502    0 +0.0000000000e+00 +0.0000000000e+00 +2.1164261442e+03 2.1164261442e+03 0.0000000000e+00 0.0000e+00 1.0000e+00
       -2 -1    0    0    0  501 -0.0000000000e+00 -0.0000000000e+00 -1.7211232293e+02 1.7211232293e+02 0.0000000000e+00 0.0000e+00 -1.0000e+00
  5000001  2    1    2    0    0 -2.4859721758e+01 -7.9449842196e+01 +1.3015174323e+03 1.6403737651e+03 9.9496139608e+02 0.0000e+00 0.0000e+00
  5000521  1    3    3    0    0 +2.5630780143e+01 -1.0231225486e+02 +1.4642978016e+03 1.4681256030e+03 1.0000000000e+01 0.0000e+00 1.0000e+00
 -5000521  1    3    3    0    0 -5.0490501900e+01 +2.2862412666e+01 -1.6278036938e+02 1.7224816211e+02 1.0000000000e+01 0.0000e+00 -1.0000e+00
       21  1    1    2  502  501 +2.4859721758e+01 +7.9449842196e+01 +6.4279638903e+02 6.4816470202e+02 0.0000000000e+00 0.0000e+00 1.0000e+00
<mgrwt>
<rscale>  1 0.99843801E+03</rscale>
<asrwt>0</asrwt>
<pdfrwt beam="1">  1        2 0.32560400E+00 0.99843801E+03</pdfrwt>
<pdfrwt beam="2">  1       -2 0.26478820E-01 0.99843801E+03</pdfrwt>
<totfact> 0.74650012E+01</totfact>
</mgrwt>
</event>
<event>
 6      1 +3.0741590e+01 1.02160700e+03 7.81860800e-03 9.28515900e-02
        2 -1    0    0  502    0 +0.0000000000e+00 +0.0000000000e+00 +4.7566453698e+02 4.7566453698e+02 0.0000000000e+00 0.0000e+00 -1.0000e+00
       -2 -1    0    0    0  501 -0.0000000000e+00 -0.0000000000e+00 -1.2341444199e+03 1.2341444199e+03 0.0000000000e+00 0.0000e+00 1.0000e+00
  5000001  2    1    2    0    0 +1.2645857713e+01 -2.1396495175e+02 -1.1081639216e+02 1.0276001065e+03 9.9886975517e+02 0.0000e+00 0.0000e+00
  5000521  1    3    3    0    0 +3.1826458569e+02 -3.0504054174e+02 +2.8056630391e+02 5.2264665837e+02 1.0000000000e+01 0.0000e+00 -1.0000e+00
 -5000521  1    3    3    0    0 -3.0561872798e+02 +9.1075589991e+01 -3.9138269607e+02 5.0495344812e+02 1.0000000000e+01 0.0000e+00 1.0000e+00
       21  1    1    2  502  501 -1.2645857713e+01 +2.1396495175e+02 -6.4766349077e+02 6.8220885040e+02 0.0000000000e+00 0.0000e+00 1.0000e+00
<mgrwt>
<rscale>  1 0.10216074E+04</rscale>
<asrwt>0</asrwt>
<pdfrwt beam="1">  1        2 0.73179160E-01 0.10216074E+04</pdfrwt>
<pdfrwt beam="2">  1       -2 0.18986837E+00 0.10216074E+04</pdfrwt>
<totfact> 0.10068446E+01</totfact>
</mgrwt>
</event>
<event>
 6      1 +3.0741590e+01 1.01043800e+03 7.81860800e-03 9.29717000e-02
        2 -1    0    0  502    0 +0.0000000000e+00 +0.0000000000e+00 +7.2170298001e+02 7.2170298001e+02 0.0000000000e+00 0.0000e+00 1.0000e+00
       -2 -1    0    0    0  501 -0.0000000000e+00 -0.0000000000e+00 -4.7983992157e+02 4.7983992157e+02 0.0000000000e+00 0.0000e+00 -1.0000e+00
  5000001  2    1    2    0    0 -1.5164637988e+02 +3.0663564920e+01 +1.4972686556e+02 1.0214708138e+03 9.9852271406e+02 0.0000e+00 0.0000e+00
  5000521  1    3    3    0    0 -5.0104125856e+02 +8.1958110146e+01 -1.7947465895e+02 5.3858205299e+02 1.0000000000e+01 0.0000e+00 -1.0000e+00
 -5000521  1    3    3    0    0 +3.4939487868e+02 -5.1294545227e+01 +3.2920152451e+02 4.8288876085e+02 1.0000000000e+01 0.0000e+00 1.0000e+00
       21  1    1    2  502  501 +1.5164637988e+02 -3.0663564920e+01 +9.2136192881e+01 1.8007208774e+02 0.0000000000e+00 0.0000e+00 1.0000e+00
<mgrwt>
<rscale>  1 0.10104378E+04</rscale>
<asrwt>0</asrwt>
<pdfrwt beam="1">  1        2 0.11103123E+00 0.10104378E+04</pdfrwt>
<pdfrwt beam="2">  1       -2 0.73821526E-01 0.10104378E+04</pdfrwt>
<totfact> 0.64967275E+01</totfact>
</mgrwt>
</event>
<event>
 6      1 +3.0741590e+01 1.01106100e+03 7.81860800e-03 9.29649600e-02
       -4 -1    0    0    0  501 -0.0000000000e+00 +0.0000000000e+00 +1.5985736492e+02 1.5985736492e+02 0.0000000000e+00 0.0000e+00 -1.0000e+00
        4 -1    0    0  502    0 +0.0000000000e+00 -0.0000000000e+00 -1.9262390380e+03 1.9262390380e+03 0.0000000000e+00 0.0000e+00 1.0000e+00
  5000001  2    1    2    0    0 +2.8531539678e+01 -1.8564268040e+01 -1.4488853136e+03 1.7667805419e+03 1.0104880754e+03 0.0000e+00 0.0000e+00
  5000521  1    3    3    0    0 +1.6833018483e+02 -4.8171378459e+02 -9.0338982858e+02 1.0375916363e+03 1.0000000000e+01 0.0000e+00 1.0000e+00
 -5000521  1    3    3    0    0 -1.3979864515e+02 +4.6314951655e+02 -5.4549548505e+02 7.2918890562e+02 1.0000000000e+01 0.0000e+00 -1.0000e+00
       21  1    1    2  502  501 -2.8531539678e+01 +1.8564268040e+01 -3.1749635943e+02 3.1931586095e+02 0.0000000000e+00 0.0000e+00 1.0000e+00
<mgrwt>
<rscale>  1 0.10110612E+04</rscale>
<asrwt>0</asrwt>
<pdfrwt beam="1">  1        4 0.29634447E+00 0.10110612E+04</pdfrwt>
<pdfrwt beam="2">  1       -4 0.24593441E-01 0.10110612E+04</pdfrwt>
<totfact> 0.10317189E+00</totfact>
</mgrwt>
</event>
<event>
 6      1 +3.0741590e+01 9.98949300e+02 7.81860800e-03 9.30969800e-02
       -1 -1    0    0    0  501 -0.0000000000e+00 +0.0000000000e+00 +1.2961070268e+03 1.2961070268e+03 0.0000000000e+00 0.0000e+00 -1.0000e+00
        1 -1    0    0  502    0 +0.0000000000e+00 -0.0000000000e+00 -3.7841504056e+02 3.7841504056e+02 0.0000000000e+00 0.0000e+00 1.0000e+00
  5000001  2    1    2    0    0 -5.4537340548e+01 +4.1649720595e+01 +1.0963129964e+03 1.4831729465e+03 9.9658957571e+02 0.0000e+00 0.0000e+00
  5000521  1    3    3    0    0 -1.6469403413e+02 +4.9595721774e+02 +6.7557298240e+02 8.5416423553e+02 1.0000000000e+01 0.0000e+00 -1.0000e+00
 -5000521  1    3    3    0    0 +1.1015669359e+02 -4.5430749714e+02 +4.2074001401e+02 6.2900871098e+02 1.0000000000e+01 0.0000e+00 1.0000e+00
       21  1    1    2  502  501 +5.4537340548e+01 -4.1649720595e+01 -1.7862101022e+02 1.9134912080e+02 0.0000000000e+00 0.0000e+00 1.0000e+00
<mgrwt>
<rscale>  1 0.99894935E+03</rscale>
<asrwt>0</asrwt>
<pdfrwt beam="1">  1        1 0.58217699E-01 0.99894935E+03</pdfrwt>
<pdfrwt beam="2">  1       -1 0.19940108E+00 0.99894935E+03</pdfrwt>
<totfact> 0.98624317E+00</totfact>
</mgrwt>
</event>
<event>
 6      1 +3.0741590e+01 1.12325700e+03 7.81860800e-03 9.18281600e-02
        1 -1    0    0  502    0 +0.0000000000e+00 +0.0000000000e+00 +7.2369803520e+02 7.2369803520e+02 0.0000000000e+00 0.0000e+00 1.0000e+00
       -1 -1    0    0    0  501 -0.0000000000e+00 -0.0000000000e+00 -4.5842043049e+02 4.5842043049e+02 0.0000000000e+00 0.0000e+00 -1.0000e+00
  5000001  2    1    2    0    0 +2.1739395395e+01 -1.4892528182e+01 +2.4712531172e+02 1.1501201150e+03 1.1229474478e+03 0.0000e+00 0.0000e+00
  5000521  1    3    3    0    0 +1.7349297506e+02 -5.2631165108e+02 +2.6906435351e+02 6.1611637926e+02 1.0000000000e+01 0.0000e+00 -1.0000e+00
 -5000521  1    3    3    0    0 -1.5175357966e+02 +5.1141912290e+02 -2.1939041793e+01 5.3400373572e+02 1.0000000000e+01 0.0000e+00 1.0000e+00
       21  1    1    2  502  501 -2.1739395395e+01 +1.4892528182e+01 +1.8152292995e+01 3.1998350720e+01 0.0000000000e+00 0.0000e+00 -1.0000e+00
<mgrwt>
<rscale>  1 0.11232566E+04</rscale>
<asrwt>0</asrwt>
<pdfrwt beam="1">  1        1 0.11133816E+00 0.11232566E+04</pdfrwt>
<pdfrwt beam="2">  1       -1 0.70526220E-01 0.11232566E+04</pdfrwt>
<totfact> 0.52336770E+01</totfact>
</mgrwt>
</event>
<event>
 6      1 +3.0741590e+01 1.00104000e+03 7.81860800e-03 9.30740500e-02
       -2 -1    0    0    0  501 -0.0000000000e+00 +0.0000000000e+00 +2.1404535388e+02 2.1404535388e+02 0.0000000000e+00 0.0000e+00 -1.0000e+00
        2 -1    0    0  502    0 +0.0000000000e+00 -0.0000000000e+00 -1.2566591589e+03 1.2566591589e+03 0.0000000000e+00 0.0000e+00 1.0000e+00
  5000001  2    1    2    0    0 +2.1780114520e+00 +2.5327444503e+01 -1.0424793990e+03 1.4452832374e+03 1.0007168010e+03 0.0000e+00 0.0000e+00
  5000521  1    3    3    0    0 +2.2540795951e+02 +1.4865499174e+02 +8.9695266154e+01 2.8469684851e+02 1.0000000000e+01 0.0000e+00 -1.0000e+00
 -5000521  1    3    3    0    0 -2.2322994805e+02 -1.2332754724e+02 -1.1321746652e+03 1.1605863889e+03 1.0000000000e+01 0.0000e+00 1.0000e+00
       21  1    1    2  502  501 -2.1780114520e+00 -2.5327444503e+01 -1.3440602961e-01 2.5421275418e+01 0.0000000000e+00 0.0000e+00 -1.0000e+00
<mgrwt>
<rscale>  1 0.10010396E+04</rscale>
<asrwt>0</asrwt>
<pdfrwt beam="1">  1        2 0.19333218E+00 0.10010396E+04</pdfrwt>
<pdfrwt beam="2">  1       -2 0.32930054E-01 0.10010396E+04</pdfrwt>
<totfact> 0.15039699E+02</totfact>
</mgrwt>
</event>
<event>
 6      1 +3.0741590e+01 1.00527600e+03 7.81860800e-03 9.30277700e-02
        2 -1    0    0  502    0 +0.0000000000e+00 +0.0000000000e+00 +9.0422042652e+02 9.0422042652e+02 0.0000000000e+00 0.0000e+00 1.0000e+00
       -2 -1    0    0    0  501 -0.0000000000e+00 -0.0000000000e+00 -5.7021311233e+02 5.7021311233e+02 0.0000000000e+00 0.0000e+00 -1.0000e+00
  5000001  2    1    2    0    0 +1.3229544625e+01 -4.8920374736e+01 +6.2191562007e+02 1.1820991130e+03 1.0039975352e+03 0.0000e+00 0.0000e+00
  5000521  1    3    3    0    0 +3.0624464007e+02 +3.7846127155e+02 +2.9546105319e+02 5.6957523435e+02 1.0000000000e+01 0.0000e+00 -1.0000e+00
 -5000521  1    3    3    0    0 -2.9301509544e+02 -4.2738164628e+02 +3.2645456688e+02 6.1252387870e+02 1.0000000000e+01 0.0000e+00 1.0000e+00
       21  1    1    2  502  501 -1.3229544625e+01 +4.8920374736e+01 -2.8790830588e+02 2.9233442580e+02 0.0000000000e+00 0.0000e+00 -1.0000e+00
<mgrwt>
<rscale>  1 0.10052757E+04</rscale>
<asrwt>0</asrwt>
<pdfrwt beam="1">  1        2 0.13911083E+00 0.10052757E+04</pdfrwt>
<pdfrwt beam="2">  1       -2 0.87725094E-01 0.10052757E+04</pdfrwt>
<totfact> 0.32487826E+01</totfact>
</mgrwt>
</event>
<event>
 6      1 +3.0741590e+01 1.00889000e+03 7.81860800e-03 9.29884800e-02
       -1 -1    0    0    0  501 -0.0000000000e+00 +0.0000000000e+00 +2.4186322059e+02 2.4186322059e+02 0.0000000000e+00 0.0000e+00 1.0000e+00
        1 -1    0    0  502    0 +0.0000000000e+00 -0.0000000000e+00 -1.2081922118e+03 1.2081922118e+03 0.0000000000e+00 0.0000e+00 -1.0000e+00
  5000001  2    1    2    0    0 +1.0077127535e+01 -5.9631812133e+01 -9.5362629347e+02 1.3882585065e+03 1.0070755045e+03 0.0000e+00 0.0000e+00
  5000521  1    3    3    0    0 -4.9150156721e+01 -2.3077584855e+02 -1.1184896678e+03 1.1431501945e+03 1.0000000000e+01 0.0000e+00 -1.0000e+00
 -5000521  1    3    3    0    0 +5.9227284255e+01 +1.7114403642e+02 +1.6486337437e+02 2.4510831200e+02 1.0000000000e+01 0.0000e+00 1.0000e+00
       21  1    1    2  502  501 -1.0077127535e+01 +5.9631812133e+01 -1.2702697748e+01 6.1796925876e+01 0.0000000000e+00 0.0000e+00 -1.0000e+00
<mgrwt>
<rscale>  1 0.10088898E+04</rscale>
<asrwt>0</asrwt>
<pdfrwt beam="1">  1        1 0.18587572E+00 0.10088898E+04</pdfrwt>
<pdfrwt beam="2">  1       -1 0.37209726E-01 0.10088898E+04</pdfrwt>
<totfact> 0.73356616E+01</totfact>
</mgrwt>
</event>
<event>
 6      1 +3.0741590e+01 1.00724400e+03 7.81860800e-03 9.30063500e-02
        1 -1    0    0  502    0 +0.0000000000e+00 +0.0000000000e+00 +4.8654365122e+02 4.8654365122e+02 0.0000000000e+00 0.0000e+00 1.0000e+00
       -1 -1    0    0    0  501 -0.0000000000e+00 -0.0000000000e+00 -7.2498023257e+02 7.2498023257e+02 0.0000000000e+00 0.0000e+00 -1.0000e+00
  5000001  2    1    2    0    0 -5.3025759256e+01 +6.9908599002e+01 -5.5664207916e+01 1.0087809829e+03 1.0034149810e+03 0.0000e+00 0.0000e+00
  5000521  1    3    3    0    0 -8.1305338556e+01 +4.3979095031e+02 -3.2269454837e+02 5.5159623784e+02 1.0000000000e+01 0.0000e+00 -1.0000e+00
 -5000521  1    3    3    0    0 +2.8279579300e+01 -3.6988235131e+02 +2.6703034045e+02 4.5718474508e+02 1.0000000000e+01 0.0000e+00 1.0000e+00
       21  1    1    2  502  501 +5.3025759256e+01 -6.9908599002e+01 -1.8277237344e+02 2.0274290087e+02 0.0000000000e+00 0.0000e+00 1.0000e+00
<mgrwt>
<rscale>  1 0.10072440E+04</rscale>
<asrwt>0</asrwt>
<pdfrwt beam="1">  1        1 0.74852870E-01 0.10072440E+04</pdfrwt>
<pdfrwt beam="2">  1       -1 0.11153542E+00 0.10072440E+04</pdfrwt>
<totfact> 0.34067993E+01</totfact>
</mgrwt>
</event>
<event>
 6      1 +3.0741590e+01 1.01711900e+03 7.81860800e-03 9.28996600e-02
        3 -1    0    0  502    0 +0.0000000000e+00 +0.0000000000e+00 +2.9981486030e+02 2.9981486030e+02 0.0000000000e+00 0.0000e+00 -1.0000e+00
       -3 -1    0    0    0  501 -0.0000000000e+00 -0.0000000000e+00 -9.3544132700e+02 9.3544132700e+02 0.0000000000e+00 0.0000e+00 1.0000e+00
  5000001  2    1    2    0    0 -3.0020734296e+01 +2.6078774216e+01 -5.9482573411e+02 1.1782820991e+03 1.0163413324e+03 0.0000e+00 0.0000e+00
  5000521  1    3    3    0    0 -2.8612395393e+02 +2.3381820243e+02 -7.3274138461e+02 8.2069958299e+02 1.0000000000e+01 0.0000e+00 1.0000e+00
 -5000521  1    3    3    0    0 +2.5610321963e+02 -2.0773942822e+02 +1.3791565050e+02 3.5758251606e+02 1.0000000000e+01 0.0000e+00 -1.0000e+00
       21  1    1    2  502  501 +3.0020734296e+01 -2.6078774216e+01 -4.0800732583e+01 5.6974088247e+01 0.0000000000e+00 0.0000e+00 -1.0000e+00
<mgrwt>
<rscale>  1 0.10171190E+04</rscale>
<asrwt>0</asrwt>
<pdfrwt beam="1">  1        3 0.46125363E-01 0.10171190E+04</pdfrwt>
<pdfrwt beam="2">  1       -3 0.14391405E+00 0.10171190E+04</pdfrwt>
<totfact> 0.43783783E+00</totfact>
</mgrwt>
</event>
<event>
 6      1 +3.0741590e+01 1.00169600e+03 7.81860800e-03 9.30668600e-02
        1 -1    0    0  502    0 +0.0000000000e+00 +0.0000000000e+00 +8.1809842267e+02 8.1809842267e+02 0.0000000000e+00 0.0000e+00 -1.0000e+00
       -1 -1    0    0    0  501 -0.0000000000e+00 -0.0000000000e+00 -3.2679095785e+02 3.2679095785e+02 0.0000000000e+00 0.0000e+00 1.0000e+00
  5000001  2    1    2    0    0 +2.2694609713e+01 -5.5357137276e+00 +5.0051327902e+02 1.1197808869e+03 1.0014239875e+03 0.0000e+00 0.0000e+00
  5000521  1    3    3    0    0 -3.8440033502e+02 +6.4438347375e+01 -8.8966309054e+01 3.9991364358e+02 1.0000000000e+01 0.0000e+00 1.0000e+00
 -5000521  1    3    3    0    0 +4.0709494473e+02 -6.9974061103e+01 +5.8947958808e+02 7.1986724333e+02 1.0000000000e+01 0.0000e+00 -1.0000e+00
       21  1    1    2  502  501 -2.2694609713e+01 +5.5357137276e+00 -9.2058141964e+00 2.5108493613e+01 0.0000000000e+00 0.0000e+00 -1.0000e+00
<mgrwt>
<rscale>  1 0.10016964E+04</rscale>
<asrwt>0</asrwt>
<pdfrwt beam="1">  1        1 0.12586130E+00 0.10016964E+04</pdfrwt>
<pdfrwt beam="2">  1       -1 0.50275532E-01 0.10016964E+04</pdfrwt>
<totfact> 0.84883322E+01</totfact>
</mgrwt>
</event>
<event>
 6      1 +3.0741590e+01 1.00047000e+03 7.81860800e-03 9.30803000e-02
        2 -1    0    0  502    0 +0.0000000000e+00 +0.0000000000e+00 +8.6482874766e+02 8.6482874766e+02 0.0000000000e+00 0.0000e+00 -1.0000e+00
       -2 -1    0    0    0  501 -0.0000000000e+00 -0.0000000000e+00 -3.3378406058e+02 3.3378406058e+02 0.0000000000e+00 0.0000e+00 1.0000e+00
  5000001  2    1    2    0    0 +3.6592541337e+01 +1.1373322219e+00 +4.2603321246e+02 1.0874025686e+03 9.9979985018e+02 0.0000e+00 0.0000e+00
  5000521  1    3    3    0    0 +4.2712132587e+02 +2.6644875449e+00 -9.3521398824e+01 4.3736252531e+02 1.0000000000e+01 0.0000e+00 1.0000e+00
 -5000521  1    3    3    0    0 -3.9052878453e+02 -1.5271553230e+00 +5.1955461128e+02 6.5004004327e+02 1.0000000000e+01 0.0000e+00 -1.0000e+00
       21  1    1    2  502  501 -3.6592541337e+01 -1.1373322219e+00 +1.0501147461e+02 1.1121023967e+02 0.0000000000e+00 0.0000e+00 1.0000e+00
<mgrwt>
<rscale>  1 0.10004699E+04</rscale>
<asrwt>0</asrwt>
<pdfrwt beam="1">  1        2 0.13305058E+00 0.10004699E+04</pdfrwt>
<pdfrwt beam="2">  1       -2 0.51351394E-01 0.10004699E+04</pdfrwt>
<totfact> 0.11081670E+02</totfact>
</mgrwt>
</event>
<event>
 6      1 +3.0741590e+01 9.96099000e+02 7.81860800e-03 9.31283400e-02
        2 -1    0    0  502    0 +0.0000000000e+00 +0.0000000000e+00 +2.5023391801e+03 2.5023391801e+03 0.0000000000e+00 0.0000e+00 -1.0000e+00
       -2 -1    0    0    0  501 -0.0000000000e+00 -0.0000000000e+00 -1.0650158145e+02 1.0650158145e+02 0.0000000000e+00 0.0000e+00 1.0000e+00
  5000001  2    1    2    0    0 -1.6475007956e+01 +1.5400412420e+01 +2.3831898674e+03 2.5829841629e+03 9.9584368396e+02 0.0000e+00 0.0000e+00
  5000521  1    3    3    0    0 -1.3774005574e+02 +4.1261213021e+02 +5.3962811367e+02 6.9319520628e+02 1.0000000000e+01 0.0000e+00 1.0000e+00
 -5000521  1    3    3    0    0 +1.2126504778e+02 -3.9721171779e+02 +1.8435617538e+03 1.8897889566e+03 1.0000000000e+01 0.0000e+00 -1.0000e+00
       21  1    1    2  502  501 +1.6475007956e+01 -1.5400412420e+01 +1.2647731222e+01 2.5856598673e+01 0.0000000000e+00 0.0000e+00 1.0000e+00
<mgrwt>
<rscale>  1 0.99609901E+03</rscale>
<asrwt>0</asrwt>
<pdfrwt beam="1">  1        2 0.38497521E+00 0.99609901E+03</pdfrwt>
<pdfrwt beam="2">  1       -2 0.16384861E-01 0.99609901E+03</pdfrwt>
<totfact> 0.10598221E+02</totfact>
</mgrwt>
</event>
<event>
 6      1 +3.0741590e+01 1.01229400e+03 7.81860800e-03 9.29516300e-02
        2 -1    0    0  502    0 +0.0000000000e+00 +0.0000000000e+00 +5.2069147429e+02 5.2069147429e+02 0.0000000000e+00 0.0000e+00 -1.0000e+00
       -2 -1    0    0    0  501 -0.0000000000e+00 -0.0000000000e+00 -6.2331571009e+02 6.2331571009e+02 0.0000000000e+00 0.0000e+00 1.0000e+00
  5000001  2    1    2    0    0 +2.0903022293e+01 -6.7534254952e+00 -2.1047426617e+02 1.0339427753e+03 1.0120551866e+03 0.0000e+00 0.0000e+00
  5000521  1    3    3    0    0 +4.1951717407e+02 -2.8173507992e+02 +9.6449627737e-01 5.0544064424e+02 1.0000000000e+01 0.0000e+00 -1.0000e+00
 -5000521  1    3    3    0    0 -3.9861415177e+02 +2.7498165442e+02 -2.1143876244e+02 5.2850213105e+02 1.0000000000e+01 0.0000e+00 1.0000e+00
       21  1    1    2  502  501 -2.0903022293e+01 +6.7534254952e+00 +1.0785003037e+02 1.1006440909e+02 0.0000000000e+00 0.0000e+00 -1.0000e+00
<mgrwt>
<rscale>  1 0.10122936E+04</rscale>
<asrwt>0</asrwt>
<pdfrwt beam="1">  1        2 0.80106381E-01 0.10122936E+04</pdfrwt>
<pdfrwt beam="2">  1       -2 0.95894725E-01 0.10122936E+04</pdfrwt>
<totfact> 0.53372393E+01</totfact>
</mgrwt>
</event>
<event>
 5      1 +3.0741590e+01 7.70712100e+02 7.81860800e-03 9.60340500e-02
       -1 -1    0    0    0  501 -0.0000000000e+00 +0.0000000000e+00 +1.1246018257e+03 1.1246018257e+03 0.0000000000e+00 0.0000e+00 1.0000e+00
        1 -1    0    0  502    0 +0.0000000000e+00 -0.0000000000e+00 -1.3901550530e+02 1.3901550530e+02 0.0000000000e+00 0.0000e+00 -1.0000e+00
  5000521  1    1    2    0    0 +6.2295987170e+01 +3.1415284890e+02 +1.2578233236e+02 3.4422957111e+02 1.0000000000e+01 0.0000e+00 -1.0000e+00
 -5000521  1    1    2    0    0 -5.6232161759e+01 -2.9501598333e+02 +8.3532601909e+02 8.8773084018e+02 1.0000000000e+01 0.0000e+00 1.0000e+00
       21  1    1    2  502  501 -6.0638254119e+00 -1.9136865570e+01 +2.4477968974e+01 3.1656919742e+01 0.0000000000e+00 0.0000e+00 1.0000e+00
<mgrwt>
<rscale>  1 0.77071213E+03</rscale>
<asrwt>0</asrwt>
<pdfrwt beam="1">  1        1 0.21387002E-01 0.77071213E+03</pdfrwt>
<pdfrwt beam="2">  1       -1 0.17301566E+00 0.77071213E+03</pdfrwt>
<totfact> 0.57147581E+01</totfact>
</mgrwt>
</event>
<event>
 6      1 +3.0741590e+01 1.00228500e+03 7.81860800e-03 9.30604200e-02
        1 -1    0    0  502    0 +0.0000000000e+00 +0.0000000000e+00 +1.4458858214e+03 1.4458858214e+03 0.0000000000e+00 0.0000e+00 1.0000e+00
       -1 -1    0    0    0  501 -0.0000000000e+00 -0.0000000000e+00 -2.5620832865e+02 2.5620832865e+02 0.0000000000e+00 0.0000e+00 -1.0000e+00
  5000001  2    1    2    0    0 -3.1170035730e+01 -2.9542236990e+01 +1.2658765899e+03 1.6146263427e+03 1.0013642548e+03 0.0000e+00 0.0000e+00
  5000521  1    3    3    0    0 -3.9721415020e+02 -2.1075191939e+02 +2.3872419793e+02 5.0920005433e+02 1.0000000000e+01 0.0000e+00 -1.0000e+00
 -5000521  1    3    3    0    0 +3.6604411447e+02 +1.8120968240e+02 +1.0271523920e+03 1.1054262884e+03 1.0000000000e+01 0.0000e+00 1.0000e+00
       21  1    1    2  502  501 +3.1170035730e+01 +2.9542236990e+01 -7.6199097209e+01 8.7467807274e+01 0.0000000000e+00 0.0000e+00 -1.0000e+00
<mgrwt>
<rscale>  1 0.10022847E+04</rscale>
<asrwt>0</asrwt>
<pdfrwt beam="1">  1        1 0.22244397E+00 0.10022847E+04</pdfrwt>
<pdfrwt beam="2">  1       -1 0.39416667E-01 0.10022847E+04</pdfrwt>
<totfact> 0.44818447E+01</totfact>
</mgrwt>
</event>
<event>
 6      1 +3.0741590e+01 9.75366200e+02 7.81860800e-03 9.33598300e-02
        2 -1    0    0  502    0 +0.0000000000e+00 +0.0000000000e+00 +1.9596567364e+03 1.9596567364e+03 0.0000000000e+00 0.0000e+00 -1.0000e+00
       -2 -1    0    0    0  501 -0.0000000000e+00 -0.0000000000e+00 -1.8787534635e+02 1.8787534635e+02 0.0000000000e+00 0.0000e+00 1.0000e+00
  5000001  2    1    2    0    0 +3.6918875880e+01 -1.8747064853e+01 +1.8314046543e+03 2.0749415223e+03 9.7448697144e+02 0.0000e+00 0.0000e+00
  5000521  1    3    3    0    0 -1.6155455889e+02 -2.1663716490e+02 +5.4277784848e+01 2.7582170807e+02 1.0000000000e+01 0.0000e+00 1.0000e+00
 -5000521  1    3    3    0    0 +1.9847343477e+02 +1.9789010005e+02 +1.7771268694e+03 1.7991198142e+03 1.0000000000e+01 0.0000e+00 -1.0000e+00
       21  1    1    2  502  501 -3.6918875880e+01 +1.8747064853e+01 -5.9623264183e+01 7.2590560465e+01 0.0000000000e+00 0.0000e+00 -1.0000e+00
<mgrwt>
<rscale>  1 0.97536625E+03</rscale>
<asrwt>0</asrwt>
<pdfrwt beam="1">  1        2 0.30148564E+00 0.97536625E+03</pdfrwt>
<pdfrwt beam="2">  1       -2 0.28903901E-01 0.97536625E+03</pdfrwt>
<totfact> 0.77673976E+01</totfact>
</mgrwt>
</event>
<event>
 6      1 +3.0741590e+01 1.00311800e+03 7.81860800e-03 9.30513200e-02
        2 -1    0    0  502    0 +0.0000000000e+00 +0.0000000000e+00 +1.1855253894e+03 1.1855253894e+03 0.0000000000e+00 0.0000e+00 1.0000e+00
       -2 -1    0    0    0  501 -0.0000000000e+00 -0.0000000000e+00 -2.8437700577e+02 2.8437700577e+02 0.0000000000e+00 0.0000e+00 -1.0000e+00
  5000001  2    1    2    0    0 +4.3040119710e+01 +2.4968071029e+01 +6.0892167942e+02 1.1734697669e+03 1.0018831397e+03 0.0000e+00 0.0000e+00
  5000521  1    3    3    0    0 +2.7412523833e+01 +3.2522446256e+02 -1.4833723269e+02 3.5864513396e+02 1.0000000000e+01 0.0000e+00 1.0000e+00
 -5000521  1    3    3    0    0 +1.5627595877e+01 -3.0025639153e+02 +7.5725891211e+02 8.1482463289e+02 1.0000000000e+01 0.0000e+00 -1.0000e+00
       21  1    1    2  502  501 -4.3040119710e+01 -2.4968071029e+01 +2.9222670424e+02 2.9643262835e+02 0.0000000000e+00 0.0000e+00 1.0000e+00
<mgrwt>
<rscale>  1 0.10031180E+04</rscale>
<asrwt>0</asrwt>
<pdfrwt beam="1">  1        2 0.18238852E+00 0.10031180E+04</pdfrwt>
<pdfrwt beam="2">  1       -2 0.43750309E-01 0.10031180E+04</pdfrwt>
<totfact> 0.95486599E+01</totfact>
</mgrwt>
</event>
<event>
 6      1 +3.0741590e+01 9.95707100e+02 7.81860800e-03 9.31326600e-02
       -1 -1    0    0    0  501 -0.0000000000e+00 +0.0000000000e+00 +9.5404644610e+02 9.5404644610e+02 0.0000000000e+00 0.0000e+00 1.0000e+00
        1 -1    0    0  502    0 +0.0000000000e+00 -0.0000000000e+00 -3.0247290407e+02 3.0247290407e+02 0.0000000000e+00 0.0000e+00 -1.0000e+00
  5000001  2    1    2    0    0 +4.5501641128e+01 +1.2862043899e+01 +6.7580349689e+02 1.2033881707e+03 9.9458377800e+02 0.0000e+00 0.0000e+00
  5000521  1    3    3    0    0 +5.1880406971e+02 +3.8108440220e+01 +3.8460261137e+02 6.4701552117e+02 1.0000000000e+01 0.0000e+00 1.0000e+00
 -5000521  1    3    3    0    0 -4.7330242858e+02 -2.5246396320e+01 +2.9120088552e+02 5.5637264954e+02 1.0000000000e+01 0.0000e+00 -1.0000e+00
       21  1    1    2  502  501 -4.5501641128e+01 -1.2862043899e+01 -2.4229954863e+01 5.3131179464e+01 0.0000000000e+00 0.0000e+00 -1.0000e+00
<mgrwt>
<rscale>  1 0.99570715E+03</rscale>
<asrwt>0</asrwt>
<pdfrwt beam="1">  1        1 0.46534293E-01 0.99570715E+03</pdfrwt>
<pdfrwt beam="2">  1       -1 0.14677638E+00 0.99570715E+03</pdfrwt>
<totfact> 0.32189342E+01</totfact>
</mgrwt>
</event>
<event>
 6      1 +3.0741590e+01 9.97412100e+02 7.81860800e-03 9.31138800e-02
       -2 -1    0    0    0  501 -0.0000000000e+00 +0.0000000000e+00 +5.8120215704e+02 5.8120215704e+02 0.0000000000e+00 0.0000e+00 -1.0000e+00
        2 -1    0    0  502    0 +0.0000000000e+00 -0.0000000000e+00 -4.8078426362e+02 4.8078426362e+02 0.0000000000e+00 0.0000e+00 1.0000e+00
  5000001  2    1    2    0    0 +1.7518922777e+00 +5.5925158734e+01 +7.4121157502e+01 1.0001623895e+03 9.9584143664e+02 0.0000e+00 0.0000e+00
  5000521  1    3    3    0    0 -3.6014884382e+02 -2.9923560106e+02 -6.8500359670e+01 4.7333015319e+02 1.0000000000e+01 0.0000e+00 -1.0000e+00
 -5000521  1    3    3    0    0 +3.6190073609e+02 +3.5516075979e+02 +1.4262151717e+02 5.2683223633e+02 1.0000000000e+01 0.0000e+00 1.0000e+00
       21  1    1    2  502  501 -1.7518922777e+00 -5.5925158734e+01 +2.6296735921e+01 6.1824031137e+01 0.0000000000e+00 0.0000e+00 -1.0000e+00
<mgrwt>
<rscale>  1 0.99741208E+03</rscale>
<asrwt>0</asrwt>
<pdfrwt beam="1">  1        2 0.73966810E-01 0.99741208E+03</pdfrwt>
<pdfrwt beam="2">  1       -2 0.89415717E-01 0.99741208E+03</pdfrwt>
<totfact> 0.69032891E+01</totfact>
</mgrwt>
</event>
<event>
 6      1 +3.0741590e+01 1.01162300e+03 7.81860800e-03 9.29588800e-02
        2 -1    0    0  502    0 +0.0000000000e+00 +0.0000000000e+00 +1.2176168377e+03 1.2176168377e+03 0.0000000000e+00 0.0000e+00 1.0000e+00
       -2 -1    0    0    0  501 -0.0000000000e+00 -0.0000000000e+00 -2.8455355984e+02 2.8455355984e+02 0.0000000000e+00 0.0000e+00 -1.0000e+00
  5000001  2    1    2    0    0 -1.4438062840e+02 -7.3806171720e+01 +7.6226893009e+02 1.2666628051e+03 9.9854274987e+02 0.0000e+00 0.0000e+00
  5000521  1    3    3    0    0 +1.1997803251e+02 -2.8912938406e+02 -1.0851040871e+02 3.3145895344e+02 1.0000000000e+01 0.0000e+00 -1.0000e+00
 -5000521  1    3    3    0    0 -2.6435866091e+02 +2.1532321234e+02 +8.7077933880e+02 9.3520385171e+02 1.0000000000e+01 0.0000e+00 1.0000e+00
       21  1    1    2  502  501 +1.4438062840e+02 +7.3806171720e+01 +1.7079434774e+02 2.3550759236e+02 0.0000000000e+00 0.0000e+00 1.0000e+00
<mgrwt>
<rscale>  1 0.10116228E+04</rscale>
<asrwt>0</asrwt>
<pdfrwt beam="1">  1        2 0.18732566E+00 0.10116228E+04</pdfrwt>
<pdfrwt beam="2">  1       -2 0.43777471E-01 0.10116228E+04</pdfrwt>
<totfact> 0.91202065E+01</totfact>
</mgrwt>
</event>
<event>
 6      1 +3.0741590e+01 1.02494700e+03 7.81860800e-03 9.28159900e-02
        1 -1    0    0  502    0 +0.0000000000e+00 +0.0000000000e+00 +7.2403925734e+02 7.2403925734e+02 0.0000000000e+00 0.0000e+00 1.0000e+00
       -1 -1    0    0    0  501 -0.0000000000e+00 -0.0000000000e+00 -6.0462079757e+02 6.0462079757e+02 0.0000000000e+00 0.0000e+00 -1.0000e+00
  5000001  2    1    2    0    0 +1.0610862089e+01 -1.9403024100e+02 +2.9522059526e+02 1.0666167080e+03 1.0063576288e+03 0.0000e+00 0.0000e+00
  5000521  1    3    3    0    0 -3.4651059125e+02 -4.6032415302e+02 +2.0752033597e+02 6.1248069809e+02 1.0000000000e+01 0.0000e+00 -1.0000e+00
 -5000521  1    3    3    0    0 +3.5712145334e+02 +2.6629391202e+02 +8.7700259299e+01 4.5413600991e+02 1.0000000000e+01 0.0000e+00 1.0000e+00
       21  1    1    2  502  501 -1.0610862089e+01 +1.9403024100e+02 -1.7580213549e+02 2.6204334691e+02 0.0000000000e+00 0.0000e+00 1.0000e+00
<mgrwt>
<rscale>  1 0.10249468E+04</rscale>
<asrwt>0</asrwt>
<pdfrwt beam="1">  1        1 0.11139065E+00 0.10249468E+04</pdfrwt>
<pdfrwt beam="2">  1       -1 0.93018585E-01 0.10249468E+04</pdfrwt>
<totfact> 0.29059594E+01</totfact>
</mgrwt>
</event>
<event>
 6      1 +3.0741590e+01 1.00264300e+03 7.81860800e-03 9.30565100e-02
       21 -1    0    0  501  502 +0.0000000000e+00 +0.0000000000e+00 +3.9475226107e+02 3.9475226107e+02 0.0000000000e+00 0.0000e+00 -1.0000e+00
        5 -1    0    0  502    0 -0.0000000000e+00 -0.0000000000e+00 -1.1206976129e+03 1.1206976129e+03 0.0000000000e+00 0.0000e+00 1.0000e+00
  5000001  2    1    2    0    0 -6.7284217052e+01 +6.0476002616e+01 -2.5319107568e+02 1.0341172256e+03 9.9855305454e+02 0.0000e+00 0.0000e+00
  5000521  1    3    3    0    0 +4.1363281188e+02 +6.0316936528e+01 -3.4781204270e+02 5.4387816002e+02 1.0000000000e+01 0.0000e+00 1.0000e+00
 -5000521  1    3    3    0    0 -4.8091702894e+02 +1.5906608744e-01 +9.4620967024e+01 4.9023906558e+02 1.0000000000e+01 0.0000e+00 -1.0000e+00
        5  1    1    2  501    0 +6.7284217052e+01 -6.0476002616e+01 -4.7275427613e+02 4.8133264834e+02 0.0000000000e+00 0.0000e+00 1.0000e+00
<mgrwt>
<rscale>  1 0.10026429E+04</rscale>
<asrwt>0</asrwt>
<pdfrwt beam="1">  1       21 0.60731117E-01 0.10026429E+04</pdfrwt>
<pdfrwt beam="2">  1        5 0.17241502E+00 0.10026429E+04</pdfrwt>
<totfact> 0.12004568E+01</totfact>
</mgrwt>
</event>
<event>
 6      1 +3.0741590e+01 1.00558000e+03 7.81860800e-03 9.30244600e-02
       -2 -1    0    0    0  501 -0.0000000000e+00 +0.0000000000e+00 +2.0902796859e+02 2.0902796859e+02 0.0000000000e+00 0.0000e+00 -1.0000e+00
        2 -1    0    0  502    0 +0.0000000000e+00 -0.0000000000e+00 -1.5307205341e+03 1.5307205341e+03 0.0000000000e+00 0.0000e+00 1.0000e+00
  5000001  2    1    2    0    0 +2.5890889035e+01 -7.3797797200e+00 -1.0042434986e+03 1.4211598818e+03 1.0052191830e+03 0.0000e+00 0.0000e+00
  5000521  1    3    3    0    0 +1.8754163148e+02 +8.7589592673e+01 -1.1592896580e+03 1.1776656195e+03 1.0000000000e+01 0.0000e+00 1.0000e+00
 -5000521  1    3    3    0    0 -1.6165074244e+02 -9.4969372393e+01 +1.5504615937e+02 2.4349426228e+02 1.0000000000e+01 0.0000e+00 -1.0000e+00
       21  1    1    2  502  501 -2.5890889035e+01 +7.3797797200e+00 -3.1744906692e+02 3.1858862090e+02 0.0000000000e+00 0.0000e+00 1.0000e+00
<mgrwt>
<rscale>  1 0.10055796E+04</rscale>
<asrwt>0</asrwt>
<pdfrwt beam="1">  1        2 0.23549547E+00 0.10055796E+04</pdfrwt>
<pdfrwt beam="2">  1       -2 0.32158148E-01 0.10055796E+04</pdfrwt>
<totfact> 0.10957078E+02</totfact>
</mgrwt>
</event>
<event>
 6      1 +3.0741590e+01 9.85177400e+02 7.81860800e-03 9.32495300e-02
        2 -1    0    0  502    0 +0.0000000000e+00 +0.0000000000e+00 +4.1654101284e+02 4.1654101284e+02 0.0000000000e+00 0.0000e+00 -1.0000e+00
       -2 -1    0    0    0  501 -0.0000000000e+00 -0.0000000000e+00 -7.0484333128e+02 7.0484333128e+02 0.0000000000e+00 0.0000e+00 1.0000e+00
  5000001  2    1    2    0    0 +2.8611394200e+01 -1.0308677526e+01 -1.7062857663e+02 9.9984426750e+02 9.8470785890e+02 0.0000e+00 0.0000e+00
  5000521  1    3    3    0    0 +3.1267760501e+02 -3.7082427436e+02 -2.3002571259e+02 5.3692621055e+02 1.0000000000e+01 0.0000e+00 1.0000e+00
 -5000521  1    3    3    0    0 -2.8406621081e+02 +3.6051559683e+02 +5.9397135965e+01 4.6291805694e+02 1.0000000000e+01 0.0000e+00 -1.0000e+00
       21  1    1    2  502  501 -2.8611394200e+01 +1.0308677526e+01 -1.1767374182e+02 1.2154007661e+02 0.0000000000e+00 0.0000e+00 1.0000e+00
<mgrwt>
<rscale>  1 0.98517737E+03</rscale>
<asrwt>0</asrwt>
<pdfrwt beam="1">  1        2 0.64083233E-01 0.98517737E+03</pdfrwt>
<pdfrwt beam="2">  1       -2 0.10843744E+00 0.98517737E+03</pdfrwt>
<totfact> 0.51573927E+01</totfact>
</mgrwt>
</event>
<event>
 6      1 +3.0741590e+01 9.99806300e+02 7.81860800e-03 9.30875700e-02
        3 -1    0    0  502    0 -0.0000000000e+00 +0.0000000000e+00 +1.4123077387e+02 1.4123077387e+02 0.0000000000e+00 0.0000e+00 -1.0000e+00
       21 -1    0    0  501  502 +0.0000000000e+00 -0.0000000000e+00 -2.4733863305e+03 2.4733863305e+03 0.0000000000e+00 0.0000e+00 1.0000e+00
  5000001  2    1    2    0    0 +4.7499075923e+00 +6.1429360695e+01 -1.6471120512e+03 1.9268084592e+03 9.9790610851e+02 0.0000e+00 0.0000e+00
  5000521  1    3    3    0    0 -2.0028997868e+02 +2.8459034896e+02 -1.5778183690e+03 1.6157718118e+03 1.0000000000e+01 0.0000e+00 1.0000e+00
 -5000521  1    3    3    0    0 +2.0503988627e+02 -2.2316098826e+02 -6.9293682179e+01 3.1103664741e+02 1.0000000000e+01 0.0000e+00 -1.0000e+00
        3  1    1    2  501    0 -4.7499075923e+00 -6.1429360695e+01 -6.8504350548e+02 6.8780864517e+02 0.0000000000e+00 0.0000e+00 -1.0000e+00
<mgrwt>
<rscale>  1 0.99980635E+03</rscale>
<asrwt>0</asrwt>
<pdfrwt beam="1">  1       21 0.38052095E+00 0.99980635E+03</pdfrwt>
<pdfrwt beam="2">  1        3 0.21727812E-01 0.99980635E+03</pdfrwt>
<totfact> 0.75655207E+00</totfact>
</mgrwt>
</event>
<event>
 6      1 +3.0741590e+01 1.00623300e+03 7.81860800e-03 9.30173400e-02
        1 -1    0    0  502    0 +0.0000000000e+00 +0.0000000000e+00 +5.3763683379e+02 5.3763683379e+02 0.0000000000e+00 0.0000e+00 1.0000e+00
       -1 -1    0    0    0  501 -0.0000000000e+00 -0.0000000000e+00 -5.0815433812e+02 5.0815433812e+02 0.0000000000e+00 0.0000e+00 -1.0000e+00
  5000001  2    1    2    0    0 -3.8442010118e+01 -6.9696948703e+00 +3.0729893661e+01 1.0067025445e+03 1.0054746750e+03 0.0000e+00 0.0000e+00
  5000521  1    3    3    0    0 +3.7436456765e+02 +2.9657606873e+02 +1.0427965420e+02 4.8895852619e+02 1.0000000000e+01 0.0000e+00 -1.0000e+00
 -5000521  1    3    3    0    0 -4.1280657776e+02 -3.0354576360e+02 -7.3549760539e+01 5.1774401833e+02 1.0000000000e+01 0.0000e+00 1.0000e+00
       21  1    1    2  502  501 +3.8442010118e+01 +6.9696948703e+00 -1.2473979915e+00 3.9088627377e+01 0.0000000000e+00 0.0000e+00 -1.0000e+00
<mgrwt>
<rscale>  1 0.10062334E+04</rscale>
<asrwt>0</asrwt>
<pdfrwt beam="1">  1        1 0.82713359E-01 0.10062334E+04</pdfrwt>
<pdfrwt beam="2">  1       -1 0.78177591E-01 0.10062334E+04</pdfrwt>
<totfact> 0.65798174E+01</totfact>
</mgrwt>
</event>
<event>
 6      1 +3.0741590e+01 9.98527300e+02 7.81860800e-03 9.31016200e-02
       -2 -1    0    0    0  501 -0.0000000000e+00 +0.0000000000e+00 +7.3040483837e+02 7.3040483837e+02 0.0000000000e+00 0.0000e+00 -1.0000e+00
        2 -1    0    0  502    0 +0.0000000000e+00 -0.0000000000e+00 -7.5036781237e+02 7.5036781237e+02 0.0000000000e+00 0.0000e+00 1.0000e+00
  5000001  2    1    2    0    0 -1.1536426273e+01 +2.1283373736e+01 +3.8861052377e+02 1.0714825651e+03 9.9823377871e+02 0.0000e+00 0.0000e+00
  5000521  1    3    3    0    0 +2.5879527605e+02 -2.0895448971e+02 +5.7947180032e+02 6.6822491801e+02 1.0000000000e+01 0.0000e+00 -1.0000e+00
 -5000521  1    3    3    0    0 -2.7033170232e+02 +2.3023786344e+02 -1.9086127655e+02 4.0325764708e+02 1.0000000000e+01 0.0000e+00 1.0000e+00
       21  1    1    2  502  501 +1.1536426273e+01 -2.1283373736e+01 -4.0857349778e+02 4.0929008566e+02 0.0000000000e+00 0.0000e+00 -1.0000e+00
<mgrwt>
<rscale>  1 0.99852729E+03</rscale>
<asrwt>0</asrwt>
<pdfrwt beam="1">  1        2 0.11544120E+00 0.99852729E+03</pdfrwt>
<pdfrwt beam="2">  1       -2 0.11236997E+00 0.99852729E+03</pdfrwt>
<totfact> 0.23244693E+01</totfact>
</mgrwt>
</event>
<event>
 6      1 +3.0741590e+01 9.94460300e+02 7.81860800e-03 9.31464200e-02
       -2 -1    0    0    0  501 -0.0000000000e+00 +0.0000000000e+00 +3.1560444606e+02 3.1560444606e+02 0.0000000000e+00 0.0000e+00 -1.0000e+00
        2 -1    0    0  502    0 +0.0000000000e+00 -0.0000000000e+00 -9.1392200536e+02 9.1392200536e+02 0.0000000000e+00 0.0000e+00 1.0000e+00
  5000001  2    1    2    0    0 +3.7511136630e+01 +6.7699102692e+00 -4.7811374128e+02 1.1034238150e+03 9.9372956521e+02 0.0000e+00 0.0000e+00
  5000521  1    3    3    0    0 +1.0353996028e+02 -4.7535313099e+02 -1.2589451252e+02 5.0262366717e+02 1.0000000000e+01 0.0000e+00 -1.0000e+00
 -5000521  1    3    3    0    0 -6.6028823655e+01 +4.8212304126e+02 -3.5221922876e+02 6.0080014779e+02 1.0000000000e+01 0.0000e+00 1.0000e+00
       21  1    1    2  502  501 -3.7511136630e+01 -6.7699102692e+00 -1.2020381802e+02 1.2610263646e+02 0.0000000000e+00 0.0000e+00 1.0000e+00
<mgrwt>
<rscale>  1 0.99446034E+03</rscale>
<asrwt>0</asrwt>
<pdfrwt beam="1">  1        2 0.14060338E+00 0.99446034E+03</pdfrwt>
<pdfrwt beam="2">  1       -2 0.48554531E-01 0.99446034E+03</pdfrwt>
<totfact> 0.11504853E+02</totfact>
</mgrwt>
</event>
<event>
 6      1 +3.0741590e+01 9.92987300e+02 7.81860800e-03 9.31627000e-02
        1 -1    0    0  502    0 +0.0000000000e+00 +0.0000000000e+00 +7.3455091097e+02 7.3455091097e+02 0.0000000000e+00 0.0000e+00 -1.0000e+00
       -1 -1    0    0    0  501 -0.0000000000e+00 -0.0000000000e+00 -3.6210052746e+02 3.6210052746e+02 0.0000000000e+00 0.0000e+00 1.0000e+00
  5000001  2    1    2    0    0 -1.5547337367e+01 -2.8594111409e+01 +3.8004434444e+02 1.0632297217e+03 9.9245372409e+02 0.0000e+00 0.0000e+00
  5000521  1    3    3    0    0 -5.5641453448e+01 -4.7550695414e+02 +3.8492200655e+02 6.1438407035e+02 1.0000000000e+01 0.0000e+00 -1.0000e+00
 -5000521  1    3    3    0    0 +4.0094116081e+01 +4.4691284273e+02 -4.8776621035e+00 4.4884565135e+02 1.0000000000e+01 0.0000e+00 1.0000e+00
       21  1    1    2  502  501 +1.5547337367e+01 +2.8594111409e+01 -7.5939609331e+00 3.3421716729e+01 0.0000000000e+00 0.0000e+00 1.0000e+00
<mgrwt>
<rscale>  1 0.99298728E+03</rscale>
<asrwt>0</asrwt>
<pdfrwt beam="1">  1        1 0.11300783E+00 0.99298728E+03</pdfrwt>
<pdfrwt beam="2">  1       -1 0.55707774E-01 0.99298728E+03</pdfrwt>
<totfact> 0.82692362E+01</totfact>
</mgrwt>
</event>
<event>
 6      1 +3.0741590e+01 1.01869200e+03 7.81860800e-03 9.28827800e-02
       -1 -1    0    0    0  501 -0.0000000000e+00 +0.0000000000e+00 +2.2629336132e+02 2.2629336132e+02 0.0000000000e+00 0.0000e+00 1.0000e+00
        1 -1    0    0  502    0 +0.0000000000e+00 -0.0000000000e+00 -1.6034432282e+03 1.6034432282e+03 0.0000000000e+00 0.0000e+00 -1.0000e+00
  5000001  2    1    2    0    0 -1.4531139283e+02 -8.7519995611e+01 -1.0604740342e+03 1.4704891351e+03 1.0044689983e+03 0.0000e+00 0.0000e+00
  5000521  1    3    3    0    0 +3.7387635917e+02 -2.5344606977e+02 -6.3316165775e+02 7.7782525485e+02 1.0000000000e+01 0.0000e+00 -1.0000e+00
 -5000521  1    3    3    0    0 -5.1918775200e+02 +1.6592607416e+02 -4.2731237645e+02 6.9266388023e+02 1.0000000000e+01 0.0000e+00 1.0000e+00
       21  1    1    2  502  501 +1.4531139283e+02 +8.7519995611e+01 -3.1667583268e+02 3.5924745444e+02 0.0000000000e+00 0.0000e+00 1.0000e+00
<mgrwt>
<rscale>  1 0.10186919E+04</rscale>
<asrwt>0</asrwt>
<pdfrwt beam="1">  1        1 0.24668357E+00 0.10186919E+04</pdfrwt>
<pdfrwt beam="2">  1       -1 0.34814364E-01 0.10186919E+04</pdfrwt>
<totfact> 0.43627899E+01</totfact>
</mgrwt>
</event>
</LesHouchesEvents>
